/*--------------------------------*- C++ -*----------------------------------*\
  =========                 |
  \\      /  F ield         | OpenFOAM: The Open Source CFD Toolbox
   \\    /   O peration     | Website:  https://openfoam.org
    \\  /    A nd           | Version:  7
     \\/     M anipulation  |
\*---------------------------------------------------------------------------*/
FoamFile
{
    version     2.0;
    format      ascii;
    class       volVectorField;
    location    "100";
    object      U;
}
// * * * * * * * * * * * * * * * * * * * * * * * * * * * * * * * * * * * * * //

dimensions      [0 1 -1 0 0 0 0];

internalField   nonuniform List<vector> 
2000
(
(0.0125865 -0.00461701 1.05827e-19)
(0.0727494 -0.026998 0)
(0.160904 -0.0453399 2.0038e-19)
(0.262848 -0.0602139 8.71321e-20)
(0.370442 -0.0712807 -1.6694e-19)
(0.478589 -0.0781904 -2.1385e-19)
(0.58396 -0.0809845 6.71773e-20)
(0.684717 -0.0795349 0)
(0.77967 -0.0740639 -5.29043e-20)
(0.866982 -0.0697836 0)
(0.0249941 -0.0116304 -5.31106e-20)
(0.109151 -0.0413726 5.13563e-20)
(0.219994 -0.0610352 -2.17354e-19)
(0.341927 -0.074113 -2.84673e-19)
(0.466188 -0.0817957 -4.3795e-21)
(0.587548 -0.0847152 6.77641e-20)
(0.702847 -0.0836862 -7.03091e-20)
(0.810583 -0.0793521 -5.85529e-20)
(0.909508 -0.073441 5.12737e-20)
(0.996211 -0.0715384 8.94521e-20)
(0.0405739 -0.0181059 5.56835e-20)
(0.152435 -0.0534946 -6.44957e-20)
(0.287252 -0.0726389 1.06098e-19)
(0.428633 -0.0822944 -4.97365e-21)
(0.567611 -0.0853199 8.3213e-20)
(0.699134 -0.0833379 7.33254e-20)
(0.820397 -0.0778486 6.46032e-20)
(0.930256 -0.0700007 5.69811e-20)
(1.02788 -0.0617751 5.11561e-20)
(1.1107 -0.0577377 -4.58128e-20)
(0.0592344 -0.0233505 -2.86313e-21)
(0.201947 -0.0617518 -6.74119e-20)
(0.361262 -0.0780777 0)
(0.520815 -0.0825159 9.1185e-20)
(0.672035 -0.0796072 -9.05317e-20)
(0.810538 -0.0718813 0)
(0.934286 -0.0613733 0)
(1.04286 -0.0494977 0)
(1.13627 -0.0380857 -5.011e-20)
(1.21323 -0.0308745 8.24489e-20)
(0.0807128 -0.0266874 1.26786e-19)
(0.256619 -0.0646821 -2.4222e-21)
(0.440116 -0.0756388 5.88149e-20)
(0.615882 -0.0731546 4.79064e-20)
(0.77647 -0.0633408 4.41962e-20)
(0.918701 -0.0494858 3.79548e-20)
(1.04172 -0.0339942 0)
(1.14616 -0.0183936 2.76608e-20)
(1.23312 -0.00427545 -1.15736e-19)
(1.30273 0.00536728 1.5153e-19)
(0.10456 -0.0274897 -1.94788e-19)
(0.314983 -0.0610659 4.89027e-21)
(0.521471 -0.0640712 -1.13996e-19)
(0.710894 -0.0532458 1.03341e-19)
(0.877696 -0.0360112 -1.26363e-19)
(1.02042 -0.0161796 4.16794e-20)
(1.13976 0.00368885 0)
(1.23761 0.0221202 -2.72674e-20)
(1.31622 0.0378514 2.33497e-20)
(1.37713 0.048658 6.86806e-20)
(0.13014 -0.0252181 0)
(0.375231 -0.0500044 0)
(0.602675 -0.0426517 -5.61157e-20)
(0.802738 -0.0224947 5.29945e-20)
(0.972494 0.00215234 -4.06015e-20)
(1.11267 0.0272763 3.86429e-20)
(1.22574 0.0504237 5.70831e-20)
(1.31501 0.0703681 -5.48264e-20)
(1.38393 0.08629 -3.93879e-20)
(1.43521 0.096786 1.95366e-20)
(0.156645 -0.0194617 3.36115e-20)
(0.435296 -0.0309862 0)
(0.680921 -0.0112214 -2.64192e-20)
(0.888324 0.0187457 9.85529e-20)
(1.05786 0.0502733 -6.44817e-20)
(1.19277 0.0795432 0)
(1.29749 0.104506 0)
(1.37679 0.124392 0)
(1.43522 0.13895 -3.46628e-20)
(1.47652 0.147651 3.36192e-20)
(0.183131 -0.00997948 -1.76552e-20)
(0.49297 -0.00393549 -1.24081e-21)
(0.753408 0.0298074 -2.82461e-20)
(0.964761 0.0695237 1.14642e-20)
(1.13115 0.106929 1.12808e-20)
(1.25858 0.138845 1.7442e-20)
(1.35347 0.163941 0)
(1.42202 0.182107 -4.73345e-21)
(1.46977 0.193782 -1.79826e-20)
(1.50127 0.199349 1.40167e-20)
(0.208568 0.00326712 0)
(0.546029 0.0307624 -1.59809e-20)
(0.817499 0.0794707 0)
(1.02951 0.128357 -6.22229e-21)
(1.19025 0.170254 -5.97991e-21)
(1.30853 0.203093 -7.93093e-21)
(1.39277 0.226565 0)
(1.45043 0.241407 4.74847e-21)
(1.4879 0.248846 3.61357e-21)
(1.51025 0.250195 1.76899e-21)
(-0.00352995 0.00294539 0)
(-0.0126842 0.00527502 -8.47505e-21)
(-0.0244854 0.00559881 0)
(-0.0347499 0.00488347 -1.22655e-20)
(-0.0421304 0.00363877 -3.92564e-21)
(-0.0464825 0.00212031 7.30632e-21)
(-0.0479672 0.000516913 -7.16151e-21)
(-0.0468704 -0.00109311 6.59252e-21)
(-0.0434956 -0.00263155 2.00145e-22)
(-0.0382228 -0.00403188 5.77051e-21)
(-0.00418497 0.00857408 -1.92326e-20)
(-0.0131861 0.0152161 1.53158e-20)
(-0.0236239 0.0160402 -1.58203e-20)
(-0.031875 0.0138737 7.57968e-21)
(-0.0368843 0.0101357 3.67948e-20)
(-0.0386319 0.00563981 -1.43562e-20)
(-0.0373547 0.000860132 0)
(-0.0333898 -0.00389916 -6.2425e-21)
(-0.0270201 -0.00845735 -5.8139e-21)
(-0.0184896 -0.0125074 0)
(-0.00538576 0.0133824 1.28452e-20)
(-0.0139412 0.0234079 0)
(-0.0215973 0.0243687 4.76116e-20)
(-0.0258507 0.0206267 -6.27169e-20)
(-0.0261627 0.0144345 1.58141e-20)
(-0.0227479 0.00704733 0)
(-0.0159933 -0.000757016 0)
(-0.00637549 -0.00851589 0)
(0.00581476 -0.015846 4.63495e-20)
(0.0205949 -0.0221519 -4.50983e-20)
(-0.00685609 0.016864 0)
(-0.0143974 0.0288757 -3.36523e-20)
(-0.0177601 0.029377 6.6962e-20)
(-0.0160117 0.0238935 -3.31745e-20)
(-0.009317 0.0152856 3.10263e-20)
(0.00179194 0.00517416 -8.97398e-20)
(0.0166394 -0.00540879 2.67393e-21)
(0.0343695 -0.0157776 5.3867e-20)
(0.0547524 -0.0253557 4.64131e-20)
(0.0782046 -0.033165 -6.67496e-20)
(-0.00822215 0.0187131 2.88754e-20)
(-0.0137602 0.0309284 -7.35452e-20)
(-0.0111291 0.0302177 -1.61667e-21)
(-0.00127984 0.0227603 3.96688e-22)
(0.0147496 0.0118302 3.07452e-20)
(0.0359133 -0.000666501 -9.50152e-20)
(0.0609454 -0.0134786 0)
(0.0888097 -0.0258497 -2.70244e-20)
(0.119292 -0.0369772 2.4451e-20)
(0.153291 -0.0453661 -8.53496e-20)
(-0.00903617 0.0187615 -9.73992e-22)
(-0.0110283 0.0291778 7.64808e-20)
(-0.000421197 0.0264202 3.65548e-20)
(0.019717 0.0168252 3.92319e-20)
(0.0473024 0.00382015 3.33764e-20)
(0.0803847 -0.0104582 3.11157e-20)
(0.117393 -0.02476 0)
(0.156934 -0.038331 2.63173e-20)
(0.198823 -0.0501576 6.80749e-20)
(0.244532 -0.0580678 -2.50761e-20)
(-0.00880269 0.0169811 6.7625e-22)
(-0.00507093 0.023565 4.24776e-20)
(0.015805 0.0179942 0)
(0.0485085 0.0062191 -6.97841e-20)
(0.0894501 -0.00830856 7.25133e-20)
(0.136111 -0.0235498 0)
(0.186404 -0.0383614 0)
(0.238571 -0.0521342 0)
(0.292462 -0.0637071 -4.87881e-20)
(0.350247 -0.0701272 -8.26992e-20)
(-0.00700478 0.0134722 -3.8528e-20)
(0.00528926 0.0143744 4.62305e-20)
(0.0390465 0.00540478 8.82628e-20)
(0.0863173 -0.00823435 4.82347e-21)
(0.142336 -0.0235303 7.532e-20)
(0.203809 -0.0386533 6.85258e-20)
(0.268115 -0.0527331 6.18941e-20)
(0.333152 -0.0654887 5.5514e-20)
(0.398839 -0.0758051 4.70258e-20)
(0.468231 -0.0800084 -3.95861e-20)
(-0.00312899 0.008455 -1.32167e-19)
(0.0212007 0.00218754 -4.40531e-20)
(0.0704275 -0.0103 -1.75361e-19)
(0.134305 -0.0252604 -8.08271e-20)
(0.206772 -0.0402932 4.34325e-21)
(0.283734 -0.0539387 -6.26019e-20)
(0.362038 -0.0657035 6.64612e-20)
(0.439245 -0.0757404 -5.36049e-20)
(0.515258 -0.0832346 4.83386e-20)
(0.594398 -0.0846455 -8.09575e-20)
(0.00328162 0.00227228 9.03146e-20)
(0.0434834 -0.0119953 0)
(0.110918 -0.0277715 9.20498e-20)
(0.193194 -0.0432079 3.7962e-24)
(0.283066 -0.0567849 4.81974e-21)
(0.375745 -0.0675136 6.74213e-20)
(0.467663 -0.0752042 -1.90406e-19)
(0.556058 -0.0801245 0)
(0.639814 -0.081891 -4.6553e-20)
(0.722849 -0.0795119 0)
(-0.0319486 -0.00502395 0)
(-0.0249663 -0.00586583 -4.75697e-21)
(-0.0169554 -0.00652414 9.22648e-21)
(-0.00817949 -0.00702352 -3.92919e-21)
(0.0011689 -0.00738834 0)
(0.0109465 -0.00765745 3.48822e-21)
(0.0210402 -0.00783034 -3.48404e-21)
(0.0313616 -0.00793985 0)
(0.0418267 -0.00797951 0)
(0.0523636 -0.00797583 2.99539e-22)
(0.0629095 -0.00791754 0)
(0.0734092 -0.00782951 0)
(0.0838142 -0.0076984 0)
(0.0940848 -0.00754965 0)
(0.104189 -0.00736972 -2.20488e-22)
(0.114079 -0.00718699 2.20295e-22)
(0.123691 -0.00698846 0)
(0.133228 -0.00680723 -1.56282e-23)
(0.143537 -0.00664995 1.56183e-23)
(0.153039 -0.00658713 0)
(-0.0104528 -0.0153392 0)
(-0.00345789 -0.0177271 1.19542e-21)
(0.00473371 -0.0196049 0)
(0.0135687 -0.020994 1.52445e-20)
(0.0228202 -0.0220355 -1.47923e-20)
(0.0324157 -0.0227831 8.71588e-22)
(0.0422773 -0.0232914 -5.99681e-21)
(0.0523239 -0.0235866 1.21067e-20)
(0.0624826 -0.023711 -9.56751e-21)
(0.0726905 -0.023677 5.10042e-21)
(0.0828917 -0.023517 3.70395e-21)
(0.0930366 -0.0232363 -6.44184e-21)
(0.103082 -0.0228643 3.17083e-21)
(0.11299 -0.0224047 1.38459e-21)
(0.122733 -0.0218896 -1.08043e-21)
(0.132267 -0.0213277 1.82561e-22)
(0.141529 -0.0207591 1.25472e-22)
(0.150695 -0.0201999 6.40118e-23)
(0.160588 -0.0197302 -6.39678e-23)
(0.169775 -0.0194646 -4.58261e-23)
(0.0317731 -0.0263539 -1.29393e-21)
(0.0386755 -0.0299931 -1.17192e-21)
(0.0470595 -0.0327948 -1.10997e-21)
(0.0559239 -0.0348814 0)
(0.0649739 -0.0364486 -1.62944e-20)
(0.0742196 -0.0375916 1.2691e-20)
(0.0836303 -0.0383569 0)
(0.0931475 -0.0388038 -1.42228e-21)
(0.102718 -0.0389689 -6.32404e-22)
(0.112295 -0.0388973 7.36937e-21)
(0.121837 -0.0386118 -1.08766e-21)
(0.131304 -0.0381485 -8.2759e-21)
(0.140662 -0.0375242 -3.68955e-22)
(0.149882 -0.0367736 -2.99831e-22)
(0.158939 -0.0359164 -2.44337e-22)
(0.167796 -0.0349975 4.36381e-22)
(0.176392 -0.0340504 -4.81721e-22)
(0.184883 -0.0331327 -3.87628e-22)
(0.194048 -0.0323188 7.21586e-24)
(0.202554 -0.0318276 6.54645e-23)
(0.0934249 -0.0380826 -3.77871e-20)
(0.100048 -0.0425832 3.03827e-21)
(0.108539 -0.0459673 3.73372e-21)
(0.117343 -0.0484801 3.36317e-20)
(0.126045 -0.0503955 2.81747e-21)
(0.134751 -0.0517899 8.49219e-22)
(0.143492 -0.052721 -2.22578e-20)
(0.152237 -0.0532412 1.38292e-20)
(0.160959 -0.0534088 1.07723e-20)
(0.169632 -0.0532632 -9.09444e-21)
(0.178234 -0.0528482 1.08861e-21)
(0.186739 -0.0521923 8.73944e-21)
(0.195127 -0.0513329 3.63163e-22)
(0.203375 -0.0502961 2.8096e-21)
(0.211468 -0.0491239 -1.95279e-21)
(0.219375 -0.0478555 -1.25749e-21)
(0.227042 -0.0465544 1.12036e-21)
(0.234604 -0.0452783 0)
(0.242772 -0.044148 3.10843e-23)
(0.250325 -0.043448 -3.86507e-23)
(0.172956 -0.0502616 8.13459e-20)
(0.179015 -0.055267 -3.32987e-20)
(0.187364 -0.0588653 3.58242e-20)
(0.19591 -0.0615153 0)
(0.20406 -0.0635593 -1.8326e-21)
(0.212007 -0.065054 -2.60697e-20)
(0.219846 -0.0660316 8.85396e-22)
(0.227582 -0.0665512 2.36819e-21)
(0.235212 -0.0666644 2.15329e-20)
(0.242736 -0.066422 1.12056e-21)
(0.250153 -0.0658617 0)
(0.257455 -0.065024 -8.5633e-22)
(0.264633 -0.0639397 0)
(0.271679 -0.0626475 -6.06367e-22)
(0.278584 -0.061183 0)
(0.285327 -0.0596017 0)
(0.291861 -0.0579665 2.60119e-22)
(0.298298 -0.0563621 -1.85434e-22)
(0.305262 -0.05493 1.57664e-22)
(0.311667 -0.0540504 4.32173e-24)
(0.268547 -0.062279 0)
(0.27365 -0.0675237 -2.25175e-21)
(0.281457 -0.0710515 -6.5274e-20)
(0.289423 -0.0735753 6.37498e-20)
(0.296737 -0.0755456 -1.86274e-21)
(0.303652 -0.0769821 0)
(0.310334 -0.077898 -2.36238e-20)
(0.316816 -0.0783382 4.37298e-20)
(0.323122 -0.0783557 -2.28035e-20)
(0.329277 -0.0779924 -1.15186e-21)
(0.335298 -0.0772903 -1.01688e-21)
(0.341197 -0.0762827 -8.85116e-22)
(0.346979 -0.0750059 0)
(0.352645 -0.0734918 3.85691e-21)
(0.358197 -0.0717826 -8.56348e-21)
(0.363623 -0.0699288 3.55837e-21)
(0.368884 -0.0680061 -2.8383e-22)
(0.374067 -0.0661047 -1.73339e-22)
(0.379694 -0.0644053 1.19992e-23)
(0.384836 -0.0633612 -1.65055e-23)
(0.378107 -0.0732411 7.81608e-20)
(0.38177 -0.0785302 0)
(0.388476 -0.0817971 -2.10423e-21)
(0.395415 -0.0840441 3.89431e-21)
(0.401521 -0.0858059 3.63004e-21)
(0.407069 -0.0870761 1.70035e-21)
(0.41229 -0.0878477 1.56157e-21)
(0.417256 -0.0881617 -1.99335e-20)
(0.422009 -0.0880589 2.40178e-20)
(0.426592 -0.0875778 1.93599e-20)
(0.431043 -0.0867506 -1.61999e-20)
(0.435384 -0.0856098 1.75447e-21)
(0.439635 -0.0841838 -5.51266e-21)
(0.443804 -0.082505 1.6004e-21)
(0.447901 -0.0806086 5.59064e-21)
(0.45192 -0.0785472 4.05724e-22)
(0.455835 -0.076393 -3.55126e-22)
(0.459706 -0.0742496 6.10383e-22)
(0.463941 -0.0723202 5.66267e-22)
(0.467782 -0.071138 -2.2938e-24)
(0.499305 -0.0824704 0)
(0.501088 -0.0875437 -6.74095e-20)
(0.505865 -0.0902629 7.03938e-20)
(0.511106 -0.0921035 -1.88671e-21)
(0.515534 -0.0935991 -3.57678e-21)
(0.519324 -0.0946704 -1.63683e-21)
(0.522743 -0.09529 -3.05624e-21)
(0.525907 -0.0954869 0)
(0.52888 -0.0952936 -1.2487e-21)
(0.531716 -0.0947358 -1.12032e-21)
(0.534457 -0.0938395 -1.0239e-21)
(0.537138 -0.092628 -1.76439e-21)
(0.539779 -0.0911263 0)
(0.542398 -0.089359 0)
(0.545004 -0.0873591 -5.09484e-22)
(0.547599 -0.0851713 -3.62617e-21)
(0.550164 -0.0828677 2.53017e-21)
(0.552735 -0.0805519 -2.01105e-22)
(0.555596 -0.0784508 -2.62737e-22)
(0.558178 -0.0771569 1.23255e-22)
(0.628844 -0.0893211 7.51572e-20)
(0.629383 -0.0944077 0)
(0.631239 -0.0962531 0)
(0.633619 -0.0974583 -5.77833e-20)
(0.635606 -0.0985521 6.48811e-21)
(0.637136 -0.0993745 1.04939e-19)
(0.638376 -0.0998536 -4.93383e-20)
(0.639454 -0.0999843 0)
(0.640443 -0.0997684 0)
(0.641394 -0.0992132 0)
(0.642344 -0.0983295 4.80913e-22)
(0.643322 -0.0971331 1.32555e-21)
(0.644346 -0.0956406 1.12563e-20)
(0.645431 -0.0938729 -1.09939e-20)
(0.646584 -0.0918557 3.7806e-21)
(0.647808 -0.0896301 -3.38725e-21)
(0.64909 -0.0872601 0)
(0.650443 -0.0848497 8.83923e-23)
(0.652024 -0.0826327 9.38977e-23)
(0.653456 -0.0812486 0)
(0.760703 -0.0907468 -1.13506e-21)
(0.763199 -0.0967783 -6.54478e-20)
(0.762168 -0.0984941 6.6879e-20)
(0.760264 -0.0995381 0)
(0.758579 -0.100434 5.39198e-20)
(0.757077 -0.101119 -1.05023e-19)
(0.755666 -0.101564 5.09617e-20)
(0.754369 -0.101741 0)
(0.753213 -0.101619 1.92564e-20)
(0.75221 -0.101176 -3.67639e-20)
(0.751364 -0.100409 1.79609e-20)
(0.75068 -0.0993184 -4.4122e-22)
(0.750161 -0.0979163 0)
(0.749809 -0.0962179 -9.90001e-21)
(0.749623 -0.0942462 1.34986e-20)
(0.749602 -0.0920362 -3.89149e-21)
(0.749736 -0.089647 -2.17204e-21)
(0.750018 -0.0871748 1.58938e-21)
(0.750475 -0.0848476 6.86664e-22)
(0.750904 -0.0833273 0)
(0.91947 -0.0817929 0)
(0.911869 -0.0882602 0)
(0.902916 -0.0908956 0)
(0.893337 -0.0929322 0)
(0.885617 -0.0947988 0)
(0.879471 -0.09631 0)
(0.874268 -0.0974285 0)
(0.869732 -0.0981745 0)
(0.865744 -0.0985533 0)
(0.862219 -0.0985636 0)
(0.859093 -0.0982086 0)
(0.856323 -0.0974979 0)
(0.853878 -0.0964456 0)
(0.851737 -0.0950701 0)
(0.849882 -0.0933949 0)
(0.848301 -0.091454 0)
(0.84698 -0.0893005 0)
(0.845904 -0.0870214 0)
(0.844975 -0.0848136 0)
(0.844049 -0.0832956 0)
(1.04954 -0.065454 0)
(1.04204 -0.0726593 0)
(1.03123 -0.0784884 0)
(1.01849 -0.0829905 0)
(1.00733 -0.086527 0)
(0.997856 -0.0892629 0)
(0.989502 -0.0913169 0)
(0.982014 -0.0927878 0)
(0.975273 -0.093744 0)
(0.969181 -0.0942315 0)
(0.963653 -0.0942865 0)
(0.958623 -0.09394 0)
(0.954046 -0.0932212 0)
(0.949886 -0.0921584 0)
(0.946115 -0.090782 0)
(0.942711 -0.0891284 0)
(0.939662 -0.0872491 0)
(0.936951 -0.0852221 0)
(0.934376 -0.0832148 0)
(0.931773 -0.0817763 0)
(1.16183 -0.0509837 0)
(1.1531 -0.0579481 0)
(1.14205 -0.0648947 0)
(1.1288 -0.0706546 0)
(1.11643 -0.0753451 0)
(1.10535 -0.0791538 0)
(1.0952 -0.0821779 0)
(1.08584 -0.0845007 0)
(1.07721 -0.0861996 0)
(1.06926 -0.0873398 0)
(1.06191 -0.0879751 0)
(1.05511 -0.0881522 0)
(1.04882 -0.0879124 0)
(1.04301 -0.0872942 0)
(1.03765 -0.086335 0)
(1.0327 -0.0850757 0)
(1.02818 -0.0835675 0)
(1.02405 -0.0818831 0)
(1.02005 -0.0801682 0)
(1.01595 -0.0789011 0)
(1.25845 -0.0372171 0)
(1.24834 -0.0442386 0)
(1.23716 -0.0515807 0)
(1.2242 -0.0579794 0)
(1.2117 -0.0633901 0)
(1.2001 -0.0679543 0)
(1.1892 -0.0717332 0)
(1.17892 -0.0747783 0)
(1.16925 -0.0771529 0)
(1.16017 -0.0789199 0)
(1.15165 -0.0801366 0)
(1.14366 -0.0808547 0)
(1.13616 -0.0811219 0)
(1.12915 -0.0809824 0)
(1.12258 -0.0804787 0)
(1.11646 -0.0796548 0)
(1.11077 -0.078562 0)
(1.10552 -0.0772683 0)
(1.10036 -0.0759008 0)
(1.09501 -0.0748585 0)
(1.3392 -0.0234543 0)
(1.32835 -0.030983 0)
(1.31729 -0.0387096 0)
(1.30499 -0.0455817 0)
(1.29295 -0.0515034 0)
(1.28152 -0.0565975 0)
(1.27059 -0.0609211 0)
(1.26011 -0.0645139 0)
(1.25009 -0.0674275 0)
(1.24053 -0.0697185 0)
(1.23144 -0.0714414 0)
(1.2228 -0.0726476 0)
(1.21461 -0.0733858 0)
(1.20684 -0.0737022 0)
(1.1995 -0.0736415 0)
(1.19258 -0.0732488 0)
(1.18608 -0.0725745 0)
(1.18002 -0.071682 0)
(1.174 -0.0706807 0)
(1.1677 -0.0698866 0)
(1.40428 -0.0104239 0)
(1.39358 -0.0185729 0)
(1.38305 -0.0266466 0)
(1.37174 -0.0338642 0)
(1.36054 -0.0401408 0)
(1.34974 -0.0455947 0)
(1.33927 -0.0502915 0)
(1.32909 -0.0542721 0)
(1.31924 -0.0575837 0)
(1.30972 -0.0602781 0)
(1.30055 -0.0624064 0)
(1.29174 -0.064018 0)
(1.28329 -0.0651602 0)
(1.27521 -0.0658786 0)
(1.26749 -0.0662178 0)
(1.26013 -0.0662226 0)
(1.25317 -0.0659414 0)
(1.24661 -0.0654327 0)
(1.24003 -0.0647888 0)
(1.2331 -0.0642444 0)
(1.45473 0.00118125 0)
(1.44488 -0.00746141 0)
(1.43532 -0.0157561 0)
(1.42526 -0.0231728 0)
(1.4152 -0.0296586 0)
(1.40534 -0.0353271 0)
(1.39566 -0.0402521 0)
(1.38615 -0.0444801 0)
(1.37684 -0.0480583 0)
(1.36774 -0.0510363 0)
(1.35888 -0.0534627 0)
(1.35027 -0.0553846 0)
(1.34193 -0.0568475 0)
(1.33388 -0.0578954 0)
(1.32612 -0.0585716 0)
(1.31867 -0.0589193 0)
(1.31155 -0.0589843 0)
(1.30478 -0.0588198 0)
(1.29794 -0.0585024 0)
(1.29067 -0.0581916 0)
(1.49194 0.0109122 0)
(1.48353 0.00202603 0)
(1.47527 -0.00631278 0)
(1.46666 -0.0137688 0)
(1.45794 -0.0203189 0)
(1.44925 -0.0260671 0)
(1.4406 -0.0310904 0)
(1.432 -0.0354409 0)
(1.42348 -0.0391667 0)
(1.41506 -0.0423166 0)
(1.40678 -0.0449374 0)
(1.39866 -0.0470742 0)
(1.39072 -0.0487704 0)
(1.38298 -0.0500682 0)
(1.37546 -0.051009 0)
(1.36818 -0.0516338 0)
(1.36116 -0.0519853 0)
(1.35443 -0.0521115 0)
(1.34758 -0.0520747 0)
(1.34024 -0.0519683 0)
(1.51775 0.0185686 0)
(1.51104 0.00968102 0)
(1.50434 0.00149762 0)
(1.4973 -0.00583076 0)
(1.49004 -0.0122988 0)
(1.48265 -0.0179962 0)
(1.47518 -0.0229972 0)
(1.46764 -0.0273561 0)
(1.46008 -0.0311219 0)
(1.45253 -0.0343418 0)
(1.44502 -0.0370609 0)
(1.43757 -0.0393224 0)
(1.43023 -0.0411674 0)
(1.42301 -0.0426361 0)
(1.41593 -0.0437675 0)
(1.40901 -0.0446002 0)
(1.4023 -0.0451734 0)
(1.39581 -0.0455301 0)
(1.38915 -0.0457199 0)
(1.38196 -0.0457816 0)
(1.53415 0.0241285 0)
(1.52923 0.0154671 0)
(1.52415 0.00759795 0)
(1.51873 0.000556152 0)
(1.51296 -0.00569065 0)
(1.50693 -0.0112141 0)
(1.5007 -0.0160811 0)
(1.49431 -0.020345 0)
(1.4878 -0.0240535 0)
(1.4812 -0.0272516 0)
(1.47457 -0.0299821 0)
(1.46792 -0.0322858 0)
(1.4613 -0.0342014 0)
(1.45472 -0.0357665 0)
(1.44822 -0.0370176 0)
(1.44182 -0.0379907 0)
(1.43555 -0.0387212 0)
(1.42945 -0.0392471 0)
(1.42314 -0.0396075 0)
(1.41627 -0.0397981 0)
(1.54306 0.0276698 0)
(1.53992 0.0194477 0)
(1.53643 0.0120326 0)
(1.53255 0.0053991 0)
(1.52823 -0.000504203 0)
(1.52355 -0.0057443 0)
(1.51856 -0.0103782 0)
(1.51332 -0.0144552 0)
(1.50789 -0.0180203 0)
(1.50229 -0.0211153 0)
(1.49658 -0.0237802 0)
(1.49078 -0.0260525 0)
(1.48495 -0.0279684 0)
(1.47909 -0.0295624 0)
(1.47325 -0.0308684 0)
(1.46745 -0.031919 0)
(1.46172 -0.0327463 0)
(1.4561 -0.0333834 0)
(1.45023 -0.0338603 0)
(1.4438 -0.0341411 0)
(1.54628 0.0293515 0)
(1.54482 0.0217464 0)
(1.54283 0.0149097 0)
(1.54037 0.00878418 0)
(1.53741 0.00331959 0)
(1.53399 -0.00154597 0)
(1.53019 -0.00586244 0)
(1.52607 -0.00967427 0)
(1.52168 -0.0130221 0)
(1.51706 -0.0159442 0)
(1.51226 -0.0184767 0)
(1.50733 -0.0206539 0)
(1.50228 -0.0225085 0)
(1.49717 -0.0240721 0)
(1.49202 -0.0253753 0)
(1.48685 -0.0264475 0)
(1.4817 -0.0273171 0)
(1.47661 -0.0280126 0)
(1.47126 -0.0285566 0)
(1.46534 -0.0288921 0)
(1.54545 0.0293862 0)
(1.54548 0.0225319 0)
(1.54485 0.0163735 0)
(1.54368 0.0108405 0)
(1.54193 0.00588842 0)
(1.53967 0.00147056 0)
(1.53696 -0.00246051 0)
(1.53387 -0.00594273 0)
(1.53045 -0.00901226 0)
(1.52676 -0.011703 0)
(1.52283 -0.0140471 0)
(1.51871 -0.0160751 0)
(1.51444 -0.0178162 0)
(1.51005 -0.0192987 0)
(1.50558 -0.0205496 0)
(1.50104 -0.021595 0)
(1.49648 -0.0224596 0)
(1.49193 -0.0231675 0)
(1.48711 -0.0237354 0)
(1.48174 -0.0240944 0)
(1.54194 0.0280136 0)
(1.54327 0.0220012 0)
(1.54383 0.0165934 0)
(1.54378 0.0117186 0)
(1.5431 0.00733987 0)
(1.54186 0.00342353 0)
(1.54012 -6.77013e-05 0)
(1.53795 -0.00316878 0)
(1.53541 -0.00591061 0)
(1.53255 -0.00832248 0)
(1.52942 -0.0104323 0)
(1.52605 -0.0122666 0)
(1.5225 -0.013851 0)
(1.51878 -0.01521 0)
(1.51494 -0.0163672 0)
(1.51101 -0.0173452 0)
(1.50701 -0.0181649 0)
(1.50299 -0.0188467 0)
(1.49868 -0.0194021 0)
(1.49385 -0.0197583 0)
(1.53696 0.0254777 0)
(1.53936 0.0203623 0)
(1.54093 0.0157521 0)
(1.54183 0.0115821 0)
(1.54206 0.00782311 0)
(1.54169 0.00445188 0)
(1.54078 0.00144074 0)
(1.53942 -0.00123944 0)
(1.53764 -0.00361486 0)
(1.53551 -0.00571024 0)
(1.53308 -0.00754914 0)
(1.53038 -0.0091541 0)
(1.52746 -0.0105468 0)
(1.52435 -0.011748 0)
(1.52108 -0.0127777 0)
(1.51769 -0.013655 0)
(1.5142 -0.0143974 0)
(1.51066 -0.0150213 0)
(1.50683 -0.0155348 0)
(1.50251 -0.0158671 0)
(1.53145 0.022011 0)
(1.53472 0.0178201 0)
(1.53711 0.0140343 0)
(1.53878 0.010599 0)
(1.53976 0.00749231 0)
(1.54011 0.0046989 0)
(1.5399 0.00219881 0)
(1.53921 -3.01148e-05 0)
(1.53807 -0.00200943 0)
(1.53656 -0.00375919 0)
(1.53472 -0.00529861 0)
(1.53258 -0.00664614 0)
(1.5302 -0.00781952 0)
(1.52761 -0.0088358 0)
(1.52484 -0.00971134 0)
(1.52191 -0.0104616 0)
(1.51887 -0.0111008 0)
(1.51575 -0.0116419 0)
(1.51235 -0.0120903 0)
(1.50847 -0.0123823 0)
(1.52617 0.0178241 0)
(1.53012 0.0145671 0)
(1.53315 0.0116181 0)
(1.53543 0.0089349 0)
(1.537 0.00650192 0)
(1.53792 0.00430951 0)
(1.53827 0.00234381 0)
(1.5381 0.000588696 0)
(1.53749 -0.000972153 0)
(1.53647 -0.00235422 0)
(1.5351 -0.00357241 0)
(1.53343 -0.00464109 0)
(1.53149 -0.00557404 0)
(1.52931 -0.00638453 0)
(1.52695 -0.00708529 0)
(1.52441 -0.00768831 0)
(1.52174 -0.00820444 0)
(1.51896 -0.00864358 0)
(1.51591 -0.00900944 0)
(1.51241 -0.009249 0)
(1.52171 0.0131005 0)
(1.52614 0.0107777 0)
(1.52965 0.00867044 0)
(1.53238 0.00674891 0)
(1.53438 0.00500319 0)
(1.53574 0.00342752 0)
(1.5365 0.00201279 0)
(1.53673 0.000748052 0)
(1.5365 -0.000377927 0)
(1.53586 -0.00137611 0)
(1.53485 -0.00225709 0)
(1.53352 -0.00303113 0)
(1.53191 -0.00370807 0)
(1.53006 -0.0042974 0)
(1.528 -0.0048082 0)
(1.52576 -0.00524902 0)
(1.52337 -0.00562749 0)
(1.52086 -0.00595051 0)
(1.51808 -0.00622124 0)
(1.51488 -0.00640142 0)
(1.5185 0.00801001 0)
(1.52325 0.00661671 0)
(1.52707 0.00535209 0)
(1.53009 0.00419733 0)
(1.53239 0.0031469 0)
(1.53402 0.00219777 0)
(1.53506 0.00134476 0)
(1.53556 0.000581471 0)
(1.53559 -9.86211e-05 0)
(1.5352 -0.000702008 0)
(1.53443 -0.00123501 0)
(1.53333 -0.00170378 0)
(1.53195 -0.00211421 0)
(1.53031 -0.002472 0)
(1.52845 -0.0027826 0)
(1.52641 -0.00305114 0)
(1.52421 -0.00328203 0)
(1.52188 -0.00347895 0)
(1.51928 -0.00364589 0)
(1.51628 -0.00376533 0)
(1.51682 0.00271576 0)
(1.52174 0.00224017 0)
(1.52571 0.00181404 0)
(1.52887 0.00142679 0)
(1.53131 0.00107515 0)
(1.53309 0.000757631 0)
(1.53427 0.000472286 0)
(1.5349 0.000216916 0)
(1.53506 -1.06753e-05 0)
(1.53479 -0.000212664 0)
(1.53414 -0.000391182 0)
(1.53316 -0.000548273 0)
(1.53189 -0.000685912 0)
(1.53036 -0.000805986 0)
(1.5286 -0.000910315 0)
(1.52666 -0.00100061 0)
(1.52456 -0.00107825 0)
(1.52232 -0.00114423 0)
(1.51981 -0.00120091 0)
(1.51692 -0.00124567 0)
(1.52119 0.24775 -1.7485e-21)
(1.52052 0.203502 0)
(1.5059 0.157588 7.68582e-22)
(1.4762 0.111301 2.29989e-20)
(1.43081 0.0661917 -6.49882e-20)
(1.36969 0.0240763 0)
(1.29358 -0.013034 -7.06525e-20)
(1.2045 -0.042914 0)
(1.10306 -0.0621825 -7.37997e-20)
(0.983786 -0.06876 1.101e-21)
(1.52455 0.24215 3.25077e-22)
(1.53088 0.205042 -4.53754e-22)
(1.52567 0.166031 4.43243e-22)
(1.50768 0.12597 -4.83682e-21)
(1.47599 0.0859493 2.07274e-20)
(1.43013 0.0473162 1.59421e-21)
(1.37023 0.0116339 0)
(1.29786 -0.0194509 5.66282e-20)
(1.21308 -0.0435285 0)
(1.10284 -0.0572649 7.07561e-20)
(1.52239 0.23344 -6.94272e-23)
(1.53396 0.202335 0)
(1.53618 0.169312 4.54724e-22)
(1.52774 0.134879 -5.02328e-21)
(1.50759 0.0997458 -2.23863e-20)
(1.47497 0.0648601 0)
(1.42952 0.0314268 -4.53115e-20)
(1.37237 0.000765203 -5.80977e-20)
(1.30377 -0.0255173 0)
(1.20766 -0.0441847 -7.0412e-20)
(1.51642 0.222497 -2.42431e-22)
(1.53176 0.196468 -6.87155e-23)
(1.53962 0.168656 0)
(1.53877 0.139322 -1.44405e-20)
(1.52812 0.108878 -1.11536e-21)
(1.50675 0.0779424 2.38267e-21)
(1.47404 0.0473894 4.43989e-20)
(1.43064 0.0182918 1.39976e-21)
(1.37705 -0.00825769 4.76938e-20)
(1.29719 -0.0297519 0)
(1.508 0.210044 0)
(1.52591 0.188281 2.5537e-23)
(1.53792 0.164971 1.09114e-21)
(1.54293 0.140207 -8.34231e-22)
(1.53989 0.114186 6.3451e-22)
(1.52788 0.0872582 1.0719e-21)
(1.50611 0.0599945 3.0996e-20)
(1.47484 0.0332111 2.555e-21)
(1.4346 0.00767163 -7.40149e-21)
(1.37099 -0.0148489 -5.18299e-20)
(1.49809 0.19661 1.64407e-21)
(1.51766 0.178386 8.66682e-23)
(1.53259 0.158884 -1.73605e-21)
(1.54196 0.138097 -7.25032e-23)
(1.54484 0.116076 7.10288e-21)
(1.54034 0.0929766 0)
(1.52764 0.0691184 -3.46143e-20)
(1.50672 0.0450676 1.00823e-21)
(1.47798 0.0213532 -7.84755e-20)
(1.42945 -0.000805764 9.72623e-20)
(1.4874 0.182587 -1.65672e-21)
(1.50792 0.167281 -2.53334e-21)
(1.52481 0.150957 8.50298e-22)
(1.5373 0.133555 -2.96314e-22)
(1.5446 0.115041 -2.92633e-21)
(1.54593 0.0954371 7.587e-21)
(1.54051 0.074882 -8.47367e-22)
(1.52812 0.0537246 1.82446e-21)
(1.50902 0.032307 3.57073e-20)
(1.47376 0.0114577 -4.55415e-20)
(1.47643 0.168268 0)
(1.4974 0.155369 6.05837e-21)
(1.5155 0.141681 -3.9975e-22)
(1.53012 0.127126 -1.2595e-21)
(1.5406 0.111623 -2.86791e-21)
(1.54629 0.0951182 -1.20078e-20)
(1.5465 0.0776295 7.43992e-21)
(1.54093 0.0593364 0)
(1.52966 0.0404304 0)
(1.5056 0.0214643 0)
(1.46556 0.153861 0)
(1.48662 0.142957 -6.72139e-21)
(1.50537 0.131456 -3.58641e-22)
(1.52134 0.119278 1.47267e-21)
(1.53401 0.106326 -1.23566e-21)
(1.54284 0.0925114 5.20316e-21)
(1.54725 0.0777784 -8.86143e-21)
(1.54693 0.06219 4.94941e-22)
(1.54181 0.0458252 0)
(1.52686 0.0290408 -1.32048e-20)
(1.45504 0.139507 3.05912e-22)
(1.47595 0.130272 4.01403e-21)
(1.49496 0.120593 5.51233e-21)
(1.5117 0.110397 -1.43062e-23)
(1.52577 0.0995917 2.89368e-22)
(1.53675 0.0880753 4.62401e-23)
(1.54418 0.0757601 -3.54562e-21)
(1.54774 0.0626366 3.43943e-22)
(1.54731 0.0487102 0)
(1.53948 0.0342028 2.39659e-20)
(1.44509 0.125297 0)
(1.46569 0.117476 4.89122e-21)
(1.48468 0.109326 9.72698e-22)
(1.50177 0.100791 0)
(1.51666 0.0917872 0)
(1.52902 0.0822189 1.42958e-22)
(1.53849 0.0719901 3.06173e-21)
(1.54481 0.0610546 3.67106e-22)
(1.54781 0.0493771 -1.02082e-22)
(1.54535 0.0370909 -1.09805e-20)
(1.43584 0.111285 0)
(1.45604 0.104677 -9.7007e-21)
(1.47483 0.0978293 -8.32729e-21)
(1.49198 0.0906968 9.80182e-22)
(1.50726 0.0832118 -5.57962e-22)
(1.52042 0.075291 -1.10226e-22)
(1.5312 0.0668458 3.22354e-23)
(1.53937 0.0578171 -1.29061e-21)
(1.54478 0.0481539 -4.19068e-22)
(1.54618 0.0379342 1.84649e-22)
(1.4274 0.0974962 0)
(1.44716 0.0919464 5.38207e-21)
(1.46564 0.0862234 -4.75898e-22)
(1.48266 0.0802919 4.68988e-22)
(1.49803 0.0740988 0)
(1.51158 0.0675769 0)
(1.52312 0.0606522 0)
(1.53245 0.0532673 1.63045e-21)
(1.53946 0.0453723 -2.11646e-21)
(1.54351 0.0370111 0)
(1.41985 0.0839366 0)
(1.43916 0.0793259 3.70848e-21)
(1.45728 0.0745902 4.22015e-21)
(1.47405 0.069703 4.57448e-21)
(1.48933 0.0646238 -7.76467e-22)
(1.50299 0.0593012 3.47446e-21)
(1.51489 0.0536774 -1.91135e-21)
(1.52489 0.0477047 0)
(1.53289 0.0413427 1.55072e-21)
(1.53865 0.0346153 2.51143e-21)
(1.41326 0.0705978 -9.54281e-22)
(1.43214 0.0668339 -3.06278e-21)
(1.44988 0.0629804 -5.50054e-21)
(1.46635 0.0590175 -3.26807e-21)
(1.48143 0.0549149 0)
(1.49502 0.0506348 -4.29836e-21)
(1.50702 0.046135 2.95046e-21)
(1.51734 0.0413797 -2.42031e-22)
(1.5259 0.0363412 9.6536e-22)
(1.53268 0.0310313 -3.02094e-21)
(1.40768 0.0574607 9.60557e-22)
(1.42616 0.0544727 -2.56767e-21)
(1.44354 0.0514213 1.99671e-21)
(1.45969 0.0482914 -4.4066e-21)
(1.47452 0.0450612 0)
(1.48795 0.0417035 0)
(1.4999 0.0381892 3.27045e-22)
(1.51032 0.0344942 -2.65697e-21)
(1.51915 0.0306025 -2.61378e-22)
(1.52649 0.0265186 5.41283e-22)
(1.40315 0.0444982 0)
(1.42128 0.0422314 4.11943e-21)
(1.43832 0.0399209 -1.32235e-21)
(1.45418 0.0375556 4.06568e-21)
(1.46875 0.0351196 1.01402e-21)
(1.48199 0.0325943 -5.80662e-22)
(1.49382 0.0299609 9.70229e-22)
(1.50422 0.0272044 1.81245e-21)
(1.51315 0.0243185 0)
(1.52074 0.021303 0)
(1.39969 0.0316786 0)
(1.41752 0.0300908 1.7538e-21)
(1.43429 0.0284746 -2.87731e-21)
(1.44989 0.0268221 0)
(1.46424 0.0251226 -1.93655e-21)
(1.47729 0.0233638 -6.36154e-22)
(1.489 0.0215345 -1.57817e-21)
(1.49933 0.0196265 -2.87899e-22)
(1.50828 0.0176395 2.09783e-22)
(1.51596 0.0155716 7.3518e-23)
(1.39733 0.0189728 0)
(1.41493 0.0180387 -1.76652e-21)
(1.43149 0.0170876 -1.43921e-21)
(1.44689 0.0161145 1.80164e-21)
(1.46108 0.0151126 8.45575e-22)
(1.47399 0.0140752 7.85841e-22)
(1.48559 0.0129961 2.73154e-21)
(1.49586 0.011872 -1.63975e-21)
(1.50482 0.0107055 3.24158e-22)
(1.51254 0.00949546 0)
(1.3961 0.00634106 0)
(1.41355 0.00605521 9.10156e-22)
(1.42996 0.00576052 -8.40734e-22)
(1.44524 0.00545404 7.57783e-22)
(1.45933 0.00513268 0)
(1.47217 0.00479358 -8.59567e-22)
(1.48373 0.00443466 5.59897e-22)
(1.49399 0.00405517 3.44473e-22)
(1.50297 0.00365698 0)
(1.51074 0.00324003 0)
(1.07831 0.48429 0)
(1.06868 0.522203 -1.0106e-19)
(1.05388 0.563325 0)
(1.03124 0.603094 -3.10983e-19)
(0.996833 0.636613 1.21504e-19)
(0.943766 0.656178 8.81566e-21)
(0.861082 0.648831 8.23332e-20)
(0.732078 0.594349 -1.76702e-20)
(0.533381 0.462392 0)
(0.233589 0.210019 7.88126e-20)
(1.14104 0.492901 1.84825e-19)
(1.1361 0.529066 1.01034e-19)
(1.12467 0.568142 -8.25218e-20)
(1.10486 0.60553 1.05169e-19)
(1.07244 0.635552 -6.70089e-20)
(1.01942 0.650306 2.34019e-20)
(0.933417 0.637096 -7.90708e-20)
(0.795971 0.576823 -1.46476e-19)
(0.581301 0.442261 -3.67071e-20)
(0.253909 0.19755 -1.09988e-19)
(1.20284 0.493488 -7.23369e-20)
(1.20144 0.527536 6.9368e-20)
(1.19298 0.563702 8.26203e-20)
(1.17538 0.597356 7.93131e-20)
(1.14379 0.622536 7.46886e-20)
(1.08931 0.631352 6.87437e-20)
(0.998453 0.611709 2.51441e-20)
(0.851495 0.546233 5.53836e-20)
(0.621213 0.411701 1.73087e-20)
(0.269789 0.180406 -1.60016e-20)
(1.2623 0.485657 1.45194e-19)
(1.26354 0.517171 -6.96981e-20)
(1.25721 0.549747 0)
(1.24073 0.578658 0)
(1.20851 0.597954 0)
(1.15091 0.600006 2.91703e-20)
(1.05365 0.573687 -6.07929e-21)
(0.896239 0.503926 0)
(0.651333 0.372317 1.62833e-21)