/*--------------------------------*- C++ -*----------------------------------*\
  =========                 |
  \\      /  F ield         | OpenFOAM: The Open Source CFD Toolbox
   \\    /   O peration     | Website:  https://openfoam.org
    \\  /    A nd           | Version:  6
     \\/     M anipulation  |
\*---------------------------------------------------------------------------*/
FoamFile
{
    version     2.0;
    format      ascii;
    class       volVectorField;
    location    "0.58";
    object      U;
}
// * * * * * * * * * * * * * * * * * * * * * * * * * * * * * * * * * * * * * //

dimensions      [0 1 -1 0 0 0 0];

internalField   nonuniform List<vector> 
2000
(
(0.569753 -0.44535 4.41913e-20)
(0.638128 -0.393314 0)
(0.705193 -0.347544 7.16841e-20)
(0.766202 -0.30989 2.94802e-20)
(0.821554 -0.278214 -5.77488e-20)
(0.871772 -0.250933 -7.03018e-20)
(0.917274 -0.227049 2.17104e-20)
(0.958594 -0.205727 0)
(0.996463 -0.186284 -1.7553e-20)
(1.02823 -0.17336 0)
(0.671324 -0.451856 -2.22381e-20)
(0.73676 -0.396079 1.76451e-20)
(0.801578 -0.346255 -8.62853e-20)
(0.860471 -0.305207 -1.07843e-19)
(0.913613 -0.270734 -3.83652e-21)
(0.961432 -0.24119 2.20861e-20)
(1.00432 -0.215556 -2.75735e-20)
(1.04275 -0.193039 -2.17541e-20)
(1.07712 -0.173251 1.74136e-20)
(1.1045 -0.160093 3.13248e-20)
(0.776418 -0.445457 2.34096e-20)
(0.837648 -0.387177 -2.94528e-20)
(0.898815 -0.334262 4.26389e-20)
(0.954171 -0.29067 -4.48644e-21)
(1.00367 -0.254183 3.22415e-20)
(1.04763 -0.223109 2.81264e-20)
(1.08638 -0.196407 2.46191e-20)
(1.12034 -0.173293 2.16083e-20)
(1.14984 -0.15333 2.10529e-20)
(1.17285 -0.139391 -1.92822e-20)
(0.882369 -0.425079 -2.62508e-21)
(0.938297 -0.365783 -3.27359e-20)
(0.994516 -0.310986 0)
(1.04504 -0.265908 3.65622e-20)
(1.08963 -0.228358 -4.01921e-20)
(1.12855 -0.196603 0)
(1.16211 -0.169572 0)
(1.19072 -0.146429 0)
(1.21479 -0.126617 -2.09727e-20)
(1.2331 -0.112312 3.48809e-20)
(0.986258 -0.390139 6.05887e-20)
(1.03604 -0.331511 -2.41591e-21)
(1.08622 -0.276262 2.85499e-20)
(1.13083 -0.230959 2.06307e-20)
(1.16952 -0.19348 2.11698e-20)
(1.2025 -0.162078 1.82723e-20)
(1.23012 -0.13566 0)
(1.25287 -0.113358 1.37145e-20)
(1.27122 -0.0945443 -5.68749e-20)
(1.28462 -0.0808328 7.4785e-20)
(1.08503 -0.340623 -9.59053e-20)
(1.12814 -0.284471 5.59071e-21)
(1.17149 -0.230368 -5.5964e-20)
(1.2094 -0.186252 5.1739e-20)
(1.24146 -0.150115 -6.20691e-20)
(1.26791 -0.120221 2.20761e-20)
(1.28915 -0.0954687 0)
(1.30573 -0.0749736 -1.37e-20)
(1.31823 -0.0580677 1.19736e-20)
(1.32655 -0.0458694 4.05051e-20)
(1.17563 -0.277115 0)
(1.21192 -0.225285 0)
(1.24799 -0.174024 -2.91998e-20)
(1.27875 -0.1326 2.89073e-20)
(1.30381 -0.0991459 -2.1506e-20)
(1.32345 -0.0719632 2.11592e-20)
(1.33816 -0.0499553 3.18803e-20)
(1.34856 -0.0322316 -3.12684e-20)
(1.3553 -0.0180981 -2.40716e-20)
(1.3586 -0.00822677 1.24858e-20)
(1.25516 -0.200805 1.91212e-20)
(1.28488 -0.155084 0)
(1.31361 -0.108379 -1.38345e-20)
(1.33714 -0.0711572 5.60738e-20)
(1.35517 -0.0417249 -3.75937e-20)
(1.36807 -0.0184347 0)
(1.37643 -0.00020492 0)
(1.38091 0.0138518 0)
(1.38222 0.0244468 -2.42132e-20)
(1.38081 0.0313129 2.37032e-20)
(1.32098 -0.113447 -1.03119e-20)
(1.34478 -0.0754757 -1.19028e-21)
(1.36651 -0.0349647 -1.65031e-20)
(1.38312 -0.00339342 7.1072e-21)
(1.39447 0.0207581 6.74413e-21)
(1.40103 0.0390658 1.10686e-20)
(1.40349 0.0525892 0)
(1.40259 0.0622016 -3.6482e-21)
(1.39905 0.0686227 -1.5e-20)
(1.39344 0.071958 1.16678e-20)
(1.37085 -0.0173076 0)
(1.38975 0.0115145 -9.99716e-21)
(1.40523 0.0443442 0)
(1.41559 0.0689658 -3.81265e-21)
(1.42094 0.0867206 -3.71654e-21)
(1.42188 0.0991056 -5.49462e-21)
(1.41918 0.107147 0)
(1.41365 0.111691 3.6696e-21)
(1.40603 0.113456 3.12282e-21)
(1.39689 0.112892 2.40099e-21)
(0.0369623 -0.0253254 0)
(0.0916452 -0.0233293 -1.09839e-21)
(0.140143 -0.0218291 0)
(0.182053 -0.0206516 -1.35301e-21)
(0.219049 -0.0197124 -4.01746e-22)
(0.252175 -0.0189477 6.93163e-22)
(0.282139 -0.0183103 -6.91386e-22)
(0.309467 -0.01777 5.88659e-22)
(0.33457 -0.0173102 4.32693e-23)
(0.357965 -0.0168964 4.65915e-22)
(0.0462341 -0.0762416 -4.39921e-21)
(0.102071 -0.0702628 3.16168e-21)
(0.151794 -0.065607 -2.81656e-21)
(0.194952 -0.0619618 1.16926e-21)
(0.233134 -0.0590489 5.19225e-21)
(0.267409 -0.0566653 -1.94534e-21)
(0.298489 -0.0546686 0)
(0.32689 -0.0529696 -6.68898e-22)
(0.353044 -0.0515137 -5.71846e-22)
(0.377732 -0.050177 0)
(0.0646757 -0.127266 3.03381e-21)
(0.122424 -0.117149 0)
(0.174194 -0.109061 8.30962e-21)
(0.219418 -0.102721 -1.03341e-20)
(0.259633 -0.0976282 2.63254e-21)
(0.295908 -0.0934292 0)
(0.32895 -0.0898865 0)
(0.359256 -0.0868503 0)
(0.387271 -0.084223 4.62816e-21)
(0.414274 -0.0817083 -4.50082e-21)
(0.0926735 -0.178151 0)
(0.152871 -0.163523 -6.93425e-21)
(0.207342 -0.151687 1.30447e-20)
(0.255278 -0.142351 -6.07357e-21)
(0.29818 -0.1348 4.73447e-21)
(0.337109 -0.128523 -1.29144e-20)
(0.372752 -0.123184 8.81205e-22)
(0.405574 -0.11857 7.04209e-21)
(0.43603 -0.114531 5.11613e-21)
(0.466062 -0.110464 -7.32555e-21)
(0.130633 -0.228323 6.71215e-21)
(0.193562 -0.208777 -1.84638e-20)
(0.251124 -0.192803 -1.00855e-21)
(0.30217 -0.180118 1.26123e-22)
(0.348153 -0.16978 4.60026e-21)
(0.39011 -0.161118 -1.59259e-20)
(0.428702 -0.153692 0)
(0.464355 -0.147227 -4.12774e-21)
(0.497522 -0.141505 3.54607e-21)
(0.530887 -0.135461 -1.10697e-20)
(0.178899 -0.276908 1.64716e-22)
(0.244534 -0.252052 1.98722e-20)
(0.305268 -0.231535 7.90474e-21)
(0.359521 -0.21513 9.30576e-21)
(0.408665 -0.201666 6.08542e-21)
(0.4537 -0.190307 5.31367e-21)
(0.495251 -0.180511 0)
(0.533702 -0.171934 4.07517e-21)
(0.569497 -0.164274 9.9264e-21)
(0.60605 -0.15585 -4.20412e-21)
(0.23765 -0.322708 9.69857e-22)
(0.305635 -0.292232 1.26559e-20)
(0.369298 -0.266807 0)
(0.426526 -0.246345 -1.36058e-20)
(0.478576 -0.229447 1.61493e-20)
(0.52639 -0.215116 0)
(0.57055 -0.202717 0)
(0.611407 -0.191842 0)
(0.649389 -0.182085 -9.68345e-21)
(0.688537 -0.170977 -1.37568e-20)
(0.306795 -0.364229 -1.17649e-20)
(0.37646 -0.327976 1.47921e-20)
(0.442481 -0.297382 2.50699e-20)
(0.502131 -0.272606 3.26727e-21)
(0.556501 -0.252035 1.91869e-20)
(0.60645 -0.234528 1.67731e-20)
(0.652519 -0.219388 1.47111e-20)
(0.695044 -0.206176 1.29619e-20)
(0.734461 -0.194364 9.55628e-21)
(0.775227 -0.180529 -7.11303e-21)
(0.385872 -0.399745 -4.68356e-20)
(0.456277 -0.357781 -1.17255e-20)
(0.523796 -0.321917 -5.03844e-20)
(0.585018 -0.292698 -2.21517e-20)
(0.640819 -0.268315 3.21031e-21)
(0.691939 -0.247497 -1.41861e-20)
(0.738849 -0.22952 1.89844e-20)
(0.781886 -0.213961 -1.28032e-20)
(0.821565 -0.200218 1.25425e-20)
(0.862403 -0.184137 -2.0633e-20)
(0.473986 -0.427407 3.31842e-20)
(0.544 -0.380076 0)
(0.61192 -0.33906 2.87542e-20)
(0.673644 -0.305455 -4.40344e-22)
(0.729792 -0.27727 3.19068e-21)
(0.780955 -0.253086 1.99146e-20)
(0.82749 -0.232101 -5.48838e-20)
(0.869663 -0.213816 0)
(0.907901 -0.197675 -1.24044e-20)
(0.945118 -0.181518 0)
(0.379014 -0.0160077 0)
(0.398589 -0.0149624 -3.08354e-22)
(0.417014 -0.0140134 5.70705e-22)
(0.434383 -0.0131458 -2.31736e-22)
(0.450771 -0.0123617 0)
(0.466272 -0.0116534 1.49602e-22)
(0.480971 -0.0110104 -1.49508e-22)
(0.49494 -0.0104239 0)
(0.50824 -0.00988646 0)
(0.520925 -0.00939155 6.00079e-24)
(0.533041 -0.00893355 0)
(0.544628 -0.00850715 0)
(0.555721 -0.00810854 0)
(0.566348 -0.00773401 0)
(0.576539 -0.00738107 2.13153e-23)
(0.586313 -0.00704818 -2.13046e-23)
(0.595662 -0.00674147 0)
(0.604663 -0.00647596 2.15454e-23)
(0.613995 -0.00624976 -2.15402e-23)
(0.623543 -0.00600813 0)
(0.398728 -0.0474955 0)
(0.41706 -0.0444057 9.5944e-23)
(0.434599 -0.0415674 0)
(0.451164 -0.0389724 8.98998e-22)
(0.466779 -0.0366289 -8.75519e-22)
(0.48155 -0.0345115 4.42701e-23)
(0.495563 -0.0325887 -2.21558e-22)
(0.508882 -0.030834 3.99934e-22)
(0.521565 -0.0292261 -2.26027e-22)
(0.533661 -0.0277451 9.52075e-23)
(0.545214 -0.0263748 -2.51316e-23)
(0.556262 -0.0250994 9.74897e-23)
(0.566836 -0.0239074 -7.76262e-23)
(0.576967 -0.0227878 -1.0577e-22)
(0.58668 -0.0217348 8.80032e-23)
(0.595992 -0.020745 -2.95203e-23)
(0.604891 -0.0198277 -3.47985e-23)
(0.613492 -0.0190022 -1.0061e-22)
(0.622504 -0.0182885 1.00712e-22)
(0.631239 -0.0177107 -6.66693e-23)
(0.435072 -0.0772257 -1.37766e-22)
(0.451018 -0.0722832 -9.46916e-23)
(0.466846 -0.0676388 -8.70845e-23)
(0.481872 -0.0633925 0)
(0.496026 -0.0595684 -9.45686e-22)
(0.509436 -0.0561167 7.36928e-22)
(0.522186 -0.0529824 0)
(0.534331 -0.0501229 -5.48018e-23)
(0.545914 -0.0475028 -1.6641e-23)
(0.55698 -0.0450908 8.53389e-23)
(0.567566 -0.0428592 -1.1463e-22)
(0.577703 -0.0407841 1.46229e-23)
(0.58742 -0.0388449 8.57957e-24)
(0.596743 -0.0370256 1.78393e-23)
(0.605697 -0.035315 2.0941e-23)
(0.614295 -0.0337104 -9.44458e-23)
(0.622522 -0.0322202 4.2411e-23)
(0.630493 -0.0308638 1.48557e-22)
(0.638902 -0.029689 1.00975e-22)
(0.647043 -0.0288778 5.72165e-23)
(0.48642 -0.104179 -3.98336e-21)
(0.498976 -0.0976842 9.19239e-22)
(0.51233 -0.0913812 6.27362e-22)
(0.525152 -0.0856191 2.69883e-21)
(0.537232 -0.0804526 2.0249e-22)
(0.548725 -0.0757961 4.9505e-23)
(0.55971 -0.0715694 -1.10033e-21)
(0.570219 -0.0677149 7.81297e-22)
(0.580285 -0.0641846 4.4729e-22)
(0.589938 -0.0609364 -2.01976e-22)
(0.599206 -0.0579327 1.19965e-22)
(0.608112 -0.0551415 6.25429e-23)
(0.616678 -0.0525353 -8.56634e-24)
(0.624925 -0.0500925 -1.50099e-22)
(0.632872 -0.0477986 1.08096e-22)
(0.64053 -0.0456502 2.1983e-22)
(0.647883 -0.043658 -1.96428e-22)
(0.655028 -0.0418458 0)
(0.66261 -0.040283 -1.43409e-22)
(0.669964 -0.0392315 -6.0848e-23)
(0.550436 -0.127422 1.03848e-20)
(0.558783 -0.119784 -3.37973e-21)
(0.568991 -0.11205 3.68081e-21)
(0.579037 -0.104972 0)
(0.588535 -0.0986575 -1.39524e-22)
(0.597655 -0.0929772 -1.79966e-21)
(0.606467 -0.0878236 2.7416e-22)
(0.614975 -0.0831254 3.31761e-22)
(0.62319 -0.0788245 1.12392e-21)
(0.631127 -0.0748691 3.62153e-23)
(0.6388 -0.0712139 0)
(0.646224 -0.0678197 -5.4962e-24)
(0.653409 -0.0646531 0)
(0.660368 -0.0616879 2.13118e-23)
(0.667114 -0.0589058 0)
(0.673654 -0.0563026 0)
(0.679969 -0.0538909 -5.56807e-23)
(0.686134 -0.0516996 1.49308e-22)
(0.692727 -0.0498132 -1.36585e-22)
(0.699141 -0.0485505 1.1062e-22)
(0.624302 -0.146174 0)
(0.627837 -0.137895 -2.70014e-22)
(0.634347 -0.129059 -7.06161e-21)
(0.641166 -0.120936 6.89996e-21)
(0.647692 -0.113716 -1.9468e-22)
(0.654102 -0.10723 0)
(0.660445 -0.101347 -1.75592e-21)
(0.666692 -0.0959859 3.06119e-21)
(0.672824 -0.0910794 -1.5005e-21)
(0.678837 -0.0865689 -6.76338e-23)
(0.684729 -0.0824031 -4.90087e-23)
(0.6905 -0.0785376 -3.20178e-23)
(0.69615 -0.0749344 0)
(0.701681 -0.071563 -9.14855e-23)
(0.707099 -0.0684024 2.89079e-22)
(0.712405 -0.0654463 -1.88892e-22)
(0.717575 -0.0627082 3.38701e-23)
(0.722662 -0.0602206 4.54064e-23)
(0.728162 -0.0580799 -6.64023e-23)
(0.733542 -0.0566484 9.18762e-23)
(0.704915 -0.159833 1.40178e-20)
(0.703268 -0.151432 0)
(0.705674 -0.141948 -2.9796e-22)
(0.708965 -0.133155 4.84857e-22)
(0.712277 -0.125332 4.18695e-22)
(0.715763 -0.118292 1.92853e-22)
(0.719457 -0.1119 1.61753e-22)
(0.723292 -0.106071 -1.63216e-21)
(0.727214 -0.100738 1.95402e-21)
(0.731194 -0.0958352 1.22184e-21)
(0.73521 -0.0913096 -1.02664e-21)
(0.739245 -0.0871128 8.05245e-23)
(0.743288 -0.0832043 -1.30534e-22)
(0.747328 -0.0795502 1.15352e-22)
(0.751361 -0.0761271 9.71186e-24)
(0.755382 -0.0729264 -9.85855e-24)
(0.759363 -0.069961 7.80738e-23)
(0.763334 -0.067265 1.13095e-23)
(0.767699 -0.0649431 -2.38125e-22)
(0.772014 -0.0633878 -5.86702e-23)
(0.789152 -0.168238 0)
(0.782199 -0.160007 -1.1207e-20)
(0.780173 -0.150315 1.16898e-20)
(0.779787 -0.141304 -2.56297e-22)
(0.779824 -0.133254 -4.87081e-22)
(0.780323 -0.125969 -1.8927e-22)
(0.781304 -0.119325 -3.50717e-22)
(0.78268 -0.113251 0)
(0.784363 -0.107683 -1.08516e-22)
(0.786293 -0.102562 -8.66017e-23)
(0.788426 -0.097833 -8.73019e-23)
(0.790727 -0.0934499 -1.15636e-22)
(0.793167 -0.0893689 0)
(0.795726 -0.085558 0)
(0.798386 -0.0819891 -2.71158e-24)
(0.801135 -0.0786543 7.32116e-23)
(0.803944 -0.0755619 -4.72599e-23)
(0.806817 -0.072749 1.78024e-23)
(0.810064 -0.0703203 1.56461e-22)
(0.813339 -0.0686864 -4.5432e-23)
(0.873708 -0.172049 1.88999e-20)
(0.862226 -0.164195 0)
(0.855433 -0.154492 0)
(0.85115 -0.145511 -9.5095e-21)
(0.847943 -0.137493 1.70318e-21)
(0.845532 -0.130223 1.5468e-20)
(0.843864 -0.123579 -7.00204e-21)
(0.842841 -0.117488 0)
(0.84235 -0.111891 0)
(0.842301 -0.106731 0)
(0.842625 -0.101962 2.94127e-23)
(0.843267 -0.0975369 1.12635e-22)
(0.844181 -0.0934183 7.89489e-22)
(0.845333 -0.0895712 -7.69132e-22)
(0.846694 -0.0859723 1.50882e-22)
(0.848243 -0.0826079 -1.47049e-22)
(0.849947 -0.0794887 0)
(0.851791 -0.0766461 -1.64528e-23)
(0.853986 -0.0741857 -3.17741e-23)
(0.856295 -0.072515 0)
(0.953158 -0.171545 -3.33486e-22)
(0.940972 -0.165485 -1.69087e-20)
(0.929993 -0.156663 1.73358e-20)
(0.921393 -0.148074 0)
(0.914751 -0.140148 1.0416e-20)
(0.909461 -0.132871 -1.95974e-20)
(0.905246 -0.126201 9.13713e-21)
(0.901948 -0.120078 0)
(0.899423 -0.114447 2.74959e-21)
(0.897541 -0.109254 -5.07905e-21)
(0.896201 -0.104454 2.37604e-21)
(0.895326 -0.100005 -4.55184e-23)
(0.894852 -0.0958685 0)
(0.894728 -0.0920119 -9.02778e-22)
(0.894915 -0.088411 1.18743e-21)
(0.895381 -0.0850501 -3.07006e-22)
(0.89609 -0.0819363 -8.88893e-23)
(0.897012 -0.0790963 9.09038e-23)
(0.898258 -0.0766276 -3.23528e-24)
(0.899702 -0.0749188 0)
(1.03052 -0.156689 0)
(1.0171 -0.153384 0)
(1.00273 -0.147117 0)
(0.989876 -0.140716 0)
(0.979812 -0.134487 0)
(0.971729 -0.128466 0)
(0.965053 -0.122753 0)
(0.959537 -0.117394 0)
(0.954998 -0.112383 0)
(0.951273 -0.107706 0)
(0.948236 -0.103338 0)
(0.945788 -0.099259 0)
(0.943853 -0.095444 0)
(0.942367 -0.0918737 0)
(0.941282 -0.0885279 0)
(0.940558 -0.0854008 0)
(0.940157 -0.0824964 0)
(0.940042 -0.0798441 0)
(0.940234 -0.077526 0)
(0.940644 -0.0758816 0)
(1.09122 -0.136854 0)
(1.07919 -0.134781 0)
(1.06434 -0.131615 0)
(1.05006 -0.127839 0)
(1.03837 -0.123713 0)
(1.02862 -0.119437 0)
(1.02025 -0.11517 0)
(1.01309 -0.111008 0)
(1.00695 -0.107002 0)
(1.00169 -0.103177 0)
(0.997185 -0.0995414 0)
(0.993326 -0.0960968 0)
(0.990038 -0.092839 0)
(0.987258 -0.0897613 0)
(0.984932 -0.0868587 0)
(0.983017 -0.0841311 0)
(0.981478 -0.0815901 0)
(0.980275 -0.0792632 0)
(0.979363 -0.0772203 0)
(0.978581 -0.0757334 0)
(1.14328 -0.117803 0)
(1.13096 -0.11782 0)
(1.11648 -0.116905 0)
(1.10217 -0.115038 0)
(1.08993 -0.112584 0)
(1.07931 -0.109791 0)
(1.06994 -0.106809 0)
(1.06169 -0.103748 0)
(1.05443 -0.100687 0)
(1.04804 -0.0976773 0)
(1.04241 -0.0947527 0)
(1.03745 -0.0919326 0)
(1.03308 -0.0892284 0)
(1.02924 -0.0866467 0)
(1.02588 -0.0841924 0)
(1.02296 -0.081873 0)
(1.02045 -0.0797034 0)
(1.01829 -0.0777104 0)
(1.01641 -0.0759502 0)
(1.01454 -0.0746416 0)
(1.18747 -0.100369 0)
(1.17471 -0.101933 0)
(1.16064 -0.102526 0)
(1.14673 -0.102097 0)
(1.13446 -0.100997 0)
(1.12354 -0.0994634 0)
(1.11369 -0.0976219 0)
(1.10483 -0.0955769 0)
(1.09689 -0.0934158 0)
(1.08975 -0.0912033 0)
(1.08334 -0.0889857 0)
(1.07757 -0.0867959 0)
(1.07239 -0.0846572 0)
(1.06774 -0.0825865 0)
(1.06356 -0.0805975 0)
(1.05983 -0.0787036 0)
(1.05651 -0.0769226 0)
(1.05356 -0.0752791 0)
(1.05084 -0.0738174 0)
(1.04804 -0.0727091 0)
(1.22354 -0.0839004 0)
(1.21081 -0.0867978 0)
(1.19734 -0.088643 0)
(1.18409 -0.0894137 0)
(1.17215 -0.0894458 0)
(1.16132 -0.0889712 0)
(1.1514 -0.088109 0)
(1.14233 -0.0869592 0)
(1.13406 -0.0856104 0)
(1.12651 -0.0841323 0)
(1.11962 -0.0825782 0)
(1.11333 -0.0809886 0)
(1.10759 -0.0793952 0)
(1.10235 -0.077822 0)
(1.09757 -0.0762891 0)
(1.09322 -0.0748144 0)
(1.08926 -0.0734175 0)
(1.08567 -0.0721209 0)
(1.08227 -0.070957 0)
(1.07867 -0.0700553 0)
(1.25171 -0.0687992 0)
(1.23954 -0.0727227 0)
(1.22698 -0.0755584 0)
(1.21464 -0.0773037 0)
(1.20332 -0.0782647 0)
(1.19288 -0.078665 0)
(1.18319 -0.0786235 0)
(1.17421 -0.0782377 0)
(1.1659 -0.0775952 0)
(1.15823 -0.0767671 0)
(1.15113 -0.0758096 0)
(1.14456 -0.0747677 0)
(1.13849 -0.0736774 0)
(1.13287 -0.0725678 0)
(1.12768 -0.0714629 0)
(1.12288 -0.0703837 0)
(1.11845 -0.0693507 0)
(1.11436 -0.0683836 0)
(1.11043 -0.0675043 0)
(1.10618 -0.0668043 0)
(1.27268 -0.0554351 0)
(1.26149 -0.0600237 0)
(1.25009 -0.0635528 0)
(1.23888 -0.0660287 0)
(1.22839 -0.0677133 0)
(1.21858 -0.0688097 0)
(1.20935 -0.0694328 0)
(1.20069 -0.0696771 0)
(1.19258 -0.0696273 0)
(1.185 -0.0693536 0)
(1.1779 -0.0689127 0)
(1.17126 -0.0683513 0)
(1.16505 -0.0677077 0)
(1.15924 -0.0670135 0)
(1.1538 -0.0662948 0)
(1.14871 -0.0655745 0)
(1.14395 -0.0648728 0)
(1.13951 -0.0642065 0)
(1.13517 -0.0635883 0)
(1.13041 -0.0630767 0)
(1.28741 -0.0439445 0)
(1.27747 -0.04887 0)
(1.26739 -0.0528101 0)
(1.25742 -0.0557771 0)
(1.24792 -0.0579823 0)
(1.23888 -0.0595996 0)
(1.23028 -0.0607347 0)
(1.22211 -0.061476 0)
(1.21437 -0.0619035 0)
(1.20705 -0.0620842 0)
(1.20012 -0.0620736 0)
(1.19357 -0.0619179 0)
(1.18738 -0.0616558 0)
(1.18152 -0.0613197 0)
(1.17598 -0.0609365 0)
(1.17073 -0.0605294 0)
(1.16578 -0.0601179 0)
(1.1611 -0.0597156 0)
(1.15647 -0.0593273 0)
(1.15133 -0.0589839 0)
(1.29695 -0.0343034 0)
(1.28837 -0.0393019 0)
(1.27966 -0.0434125 0)
(1.27097 -0.0466542 0)
(1.26252 -0.0491904 0)
(1.25436 -0.0511627 0)
(1.24649 -0.052664 0)
(1.23892 -0.0537741 0)
(1.23167 -0.0545658 0)
(1.22473 -0.0551013 0)
(1.21809 -0.055433 0)
(1.21174 -0.0556053 0)
(1.20568 -0.0556556 0)
(1.19989 -0.0556157 0)
(1.19436 -0.0555123 0)
(1.18907 -0.0553676 0)
(1.18402 -0.0551997 0)
(1.1792 -0.0550196 0)
(1.17438 -0.0548251 0)
(1.16898 -0.0546252 0)
(1.30234 -0.0263889 0)
(1.29511 -0.0312617 0)
(1.28772 -0.0353519 0)
(1.28028 -0.0386858 0)
(1.27289 -0.0413862 0)
(1.26563 -0.043564 0)
(1.25854 -0.0452976 0)
(1.25163 -0.0466567 0)
(1.24493 -0.0477057 0)
(1.23844 -0.0485005 0)
(1.23216 -0.0490891 0)
(1.2261 -0.0495125 0)
(1.22026 -0.0498059 0)
(1.21462 -0.0499995 0)
(1.20918 -0.0501183 0)
(1.20393 -0.0501832 0)
(1.19887 -0.0502104 0)
(1.19399 -0.0502079 0)
(1.18907 -0.0501685 0)
(1.18349 -0.0500848 0)
(1.30451 -0.0200205 0)
(1.29854 -0.0246251 0)
(1.29238 -0.0285511 0)
(1.28609 -0.0318319 0)
(1.27971 -0.0345574 0)
(1.27334 -0.036812 0)
(1.26702 -0.0386602 0)
(1.26078 -0.0401612 0)
(1.25465 -0.0413701 0)
(1.24864 -0.0423358 0)
(1.24277 -0.0431009 0)
(1.23704 -0.0437026 0)
(1.23146 -0.0441727 0)
(1.22603 -0.0445386 0)
(1.22074 -0.0448234 0)
(1.21558 -0.0450457 0)
(1.21056 -0.0452196 0)
(1.20569 -0.0453503 0)
(1.20072 -0.0454268 0)
(1.19505 -0.0454308 0)
(1.30428 -0.0149911 0)
(1.29943 -0.0192301 0)
(1.29437 -0.0228882 0)
(1.28911 -0.0260049 0)
(1.28365 -0.0286448 0)
(1.2781 -0.0308703 0)
(1.27251 -0.0327336 0)
(1.26691 -0.0342838 0)
(1.26134 -0.0355669 0)
(1.25581 -0.0366246 0)
(1.25036 -0.0374937 0)
(1.24498 -0.0382067 0)
(1.23968 -0.0387918 0)
(1.23448 -0.039273 0)
(1.22936 -0.0396707 0)
(1.22433 -0.0400011 0)
(1.21939 -0.0402755 0)
(1.21456 -0.0404967 0)
(1.20959 -0.0406514 0)
(1.20387 -0.0407152 0)
(1.30234 -0.0110887 0)
(1.29847 -0.0148983 0)
(1.29434 -0.0182167 0)
(1.28997 -0.0210879 0)
(1.28532 -0.0235572 0)
(1.2805 -0.0256697 0)
(1.27557 -0.0274669 0)
(1.27056 -0.0289889 0)
(1.2655 -0.0302732 0)
(1.26043 -0.0313544 0)
(1.25537 -0.0322637 0)
(1.25032 -0.0330286 0)
(1.24531 -0.0336732 0)
(1.24034 -0.0342181 0)
(1.2354 -0.0346805 0)
(1.23051 -0.0350736 0)
(1.22568 -0.0354062 0)
(1.22091 -0.0356787 0)
(1.21595 -0.0358766 0)
(1.21023 -0.0359742 0)
(1.29926 -0.00810929 0)
(1.29621 -0.0114499 0)
(1.29287 -0.014381 0)
(1.28923 -0.0169488 0)
(1.28527 -0.0191843 0)
(1.28107 -0.0211191 0)
(1.27671 -0.0227859 0)
(1.27221 -0.0242168 0)
(1.26761 -0.0254417 0)
(1.26295 -0.0264888 0)
(1.25823 -0.0273836 0)
(1.25349 -0.028149 0)
(1.24874 -0.0288048 0)
(1.24398 -0.029368 0)
(1.23922 -0.0298524 0)
(1.23446 -0.0302684 0)
(1.22972 -0.0306218 0)
(1.22502 -0.0309112 0)
(1.2201 -0.0311217 0)
(1.21439 -0.0312298 0)
(1.29552 -0.00586469 0)
(1.29314 -0.00871344 0)
(1.29042 -0.0112268 0)
(1.28737 -0.0134513 0)
(1.28397 -0.0154071 0)
(1.28029 -0.0171155 0)
(1.2764 -0.018602 0)
(1.27233 -0.0198918 0)
(1.26811 -0.0210082 0)
(1.26378 -0.0219735 0)
(1.25936 -0.0228082 0)
(1.25488 -0.0235306 0)
(1.25034 -0.0241564 0)
(1.24576 -0.0246992 0)
(1.24114 -0.0251693 0)
(1.2365 -0.0255741 0)
(1.23185 -0.0259169 0)
(1.2272 -0.0261943 0)
(1.22231 -0.0263919 0)
(1.21661 -0.026491 0)
(1.2915 -0.00418597 0)
(1.28964 -0.00653066 0)
(1.2874 -0.00860753 0)
(1.28481 -0.0104618 0)
(1.28183 -0.0121048 0)
(1.27856 -0.0135506 0)
(1.27503 -0.0148186 0)
(1.27129 -0.0159281 0)
(1.26738 -0.0168967 0)
(1.26331 -0.0177417 0)
(1.25912 -0.0184787 0)
(1.25483 -0.019122 0)
(1.25045 -0.0196836 0)
(1.246 -0.0201736 0)
(1.24149 -0.0205993 0)
(1.23693 -0.0209653 0)
(1.23233 -0.0212724 0)
(1.22772 -0.0215155 0)
(1.22285 -0.0216815 0)
(1.21715 -0.0217565 0)
(1.2875 -0.0029237 0)
(1.28603 -0.00475827 0)
(1.28414 -0.00638758 0)
(1.28186 -0.00785291 0)
(1.2792 -0.00915952 0)
(1.27621 -0.0103154 0)
(1.27295 -0.0113356 0)
(1.26945 -0.012234 0)
(1.26574 -0.0130238 0)
(1.26185 -0.0137173 0)
(1.25782 -0.0143263 0)
(1.25365 -0.0148612 0)
(1.24937 -0.0153307 0)
(1.245 -0.0157417 0)
(1.24054 -0.0160991 0)
(1.23601 -0.0164048 0)
(1.23142 -0.0166576 0)
(1.22682 -0.0168516 0)
(1.22193 -0.0169757 0)
(1.21623 -0.017016 0)
(1.28376 -0.00194722 0)
(1.28254 -0.00326803 0)
(1.28088 -0.00444206 0)
(1.27881 -0.00550498 0)
(1.27635 -0.00645687 0)
(1.27354 -0.00730205 0)
(1.27043 -0.00805151 0)
(1.26706 -0.00871492 0)
(1.26347 -0.00930107 0)
(1.25967 -0.00981846 0)
(1.25571 -0.0102752 0)
(1.25159 -0.0106781 0)
(1.24734 -0.0110332 0)
(1.24297 -0.0113446 0)
(1.23851 -0.0116151 0)
(1.23395 -0.0118451 0)
(1.22933 -0.0120318 0)
(1.22468 -0.0121711 0)
(1.21976 -0.0122569 0)
(1.21402 -0.0122525 0)
(1.28046 -0.00113521 0)
(1.27938 -0.00193775 0)
(1.27783 -0.00264917 0)
(1.27585 -0.00329662 0)
(1.27347 -0.00387758 0)
(1.27072 -0.00439437 0)
(1.26767 -0.00485415 0)
(1.26434 -0.00526281 0)
(1.26076 -0.00562518 0)
(1.25696 -0.00594637 0)
(1.25297 -0.00623092 0)
(1.24882 -0.00648291 0)
(1.24452 -0.00670545 0)
(1.24009 -0.00690101 0)
(1.23554 -0.00707084 0)
(1.23089 -0.00721453 0)
(1.22617 -0.00732963 0)
(1.22142 -0.00741879 0)
(1.21642 -0.00749242 0)
(1.21061 -0.00744773 0)
(1.27773 -0.000401147 0)
(1.27667 -0.000667582 0)
(1.27511 -0.000906999 0)
(1.27311 -0.00112793 0)
(1.27069 -0.0013251 0)
(1.2679 -0.00150028 0)
(1.26479 -0.00165682 0)
(1.26138 -0.00179643 0)
(1.25772 -0.00192058 0)
(1.25383 -0.00203091 0)
(1.24973 -0.00212896 0)
(1.24546 -0.00221597 0)
(1.24102 -0.00229293 0)
(1.23645 -0.00236055 0)
(1.23175 -0.00241919 0)
(1.22695 -0.00246821 0)
(1.22206 -0.00250652 0)
(1.21714 -0.00254097 0)
(1.21204 -0.00258575 0)
(1.20576 -0.00253456 0)
(1.38672 0.111367 -2.38161e-21)
(1.38661 0.0753867 0)
(1.37853 0.0393605 5.81979e-22)
(1.36198 0.00391911 1.68897e-20)
(1.33654 -0.0303234 -3.79294e-20)
(1.30196 -0.0627664 0)
(1.25823 -0.0928095 -3.23068e-20)
(1.20616 -0.119798 0)
(1.14649 -0.142106 -2.66107e-20)
(1.07666 -0.156168 3.61094e-22)
(1.37587 0.108902 1.77134e-21)
(1.37865 0.0783851 -5.20287e-22)
(1.37496 0.0476777 5.11248e-22)
(1.36433 0.0172317 -1.68605e-21)
(1.34631 -0.0125195 1.45819e-20)
(1.32049 -0.0411621 9.86039e-22)
(1.28653 -0.0683035 0)
(1.24467 -0.093654 2.57015e-20)
(1.19555 -0.116704 0)
(1.13084 -0.134106 2.4811e-20)
(1.36462 0.105095 -3.30728e-21)
(1.3695 0.0788786 0)
(1.36911 0.0523985 4.72629e-22)
(1.363 0.0259758 -2.2124e-21)
(1.35074 -8.61428e-05 -1.57158e-20)
(1.3319 -0.0254985 0)
(1.30604 -0.0499668 -2.54087e-20)
(1.27303 -0.0732288 -2.68627e-20)
(1.23401 -0.0952467 0)
(1.17824 -0.113869 -2.52586e-20)
(1.35327 0.100395 1.34809e-21)
(1.35967 0.0778256 -5.62107e-21)
(1.36174 0.0549678 0)
(1.35911 0.0320547 -1.43345e-20)
(1.35139 0.00930232 -8.42856e-22)
(1.33818 -0.013089 1.64223e-21)
(1.31904 -0.034917 2.49924e-20)
(1.29365 -0.0559457 7.56742e-22)
(1.26341 -0.0762675 2.07231e-20)
(1.21769 -0.0950256 0)
(1.34206 0.0950677 0)
(1.34954 0.075622 5.48086e-21)
(1.35345 0.0559043 6.17268e-21)
(1.35348 0.0360878 -1.13125e-21)
(1.3493 0.0163296 7.50724e-22)
(1.3406 -0.00323029 7.50753e-22)
(1.32697 -0.0224638 2.09303e-20)
(1.30799 -0.0411982 1.37894e-21)
(1.28506 -0.0595139 -2.07803e-21)
(1.24901 -0.0774748 -2.10417e-20)
(1.33116 0.0892969 -9.69923e-22)
(1.33938 0.0725215 -3.10479e-22)
(1.34463 0.0555072 -2.84453e-23)
(1.34666 0.0383864 -3.26447e-22)
(1.34521 0.021276 1.04579e-20)
(1.34003 0.0042775 0)
(1.3308 -0.012527 -2.33566e-20)
(1.31708 -0.0290286 6.5708e-22)
(1.30008 -0.0452518 -3.86851e-20)
(1.27259 -0.0617463 4.1035e-20)
(1.3207 0.0832256 9.74041e-22)
(1.32939 0.0687387 1.92341e-21)
(1.33559 0.0540515 -4.84947e-21)
(1.3391 0.0392674 8.4869e-21)
(1.33971 0.0244759 -4.86281e-22)
(1.33723 0.00975304 9.60531e-21)
(1.33144 -0.00484495 -6.23005e-22)
(1.32194 -0.0192573 1.20813e-21)
(1.30967 -0.0334626 1.84235e-20)
(1.28936 -0.0481693 -1.99692e-20)
(1.31075 0.0769632 0)
(1.31972 0.0644492 -3.84471e-21)
(1.32657 0.0517729 4.98022e-22)
(1.33115 0.0390171 -5.3589e-21)
(1.33329 0.0262522 -9.86248e-22)
(1.33286 0.0135368 -1.79192e-20)
(1.3297 0.000912871 8.24895e-21)
(1.32351 -0.0115902 0)
(1.31495 -0.0239289 0)
(1.30043 -0.0367828 0)
(1.30138 0.0705927 0)
(1.31049 0.0597902 2.92448e-21)
(1.31777 0.04886 2.07223e-22)
(1.32309 0.0378697 -4.10747e-21)
(1.32634 0.0268757 -8.64756e-21)
(1.32742 0.0159245 9.41897e-21)
(1.32625 0.00504965 -1.00021e-20)
(1.32259 -0.00573631 5.2716e-22)
(1.3169 -0.0163861 0)
(1.30689 -0.0274667 -7.91477e-21)
(1.29265 0.0641752 -7.68194e-23)
(1.30179 0.0548679 -1.56709e-21)
(1.30932 0.0454629 -2.55531e-21)
(1.31513 0.0360156 2.45447e-22)
(1.31916 0.0265719 -4.4643e-22)
(1.32134 0.0171696 7.86644e-21)
(1.32162 0.0078366 -8.52425e-21)
(1.31987 -0.00142167 4.89903e-22)
(1.31635 -0.0105634 0)
(1.30976 -0.0200206 1.54686e-20)
(1.28457 0.0577557 0)
(1.29367 0.049765 -1.09267e-21)
(1.30132 0.0417015 3.53393e-22)
(1.30745 0.0336106 0)
(1.312 0.0255299 0)
(1.31495 0.0174902 -7.00435e-21)
(1.31628 0.00951513 7.19244e-21)
(1.31591 0.00160829 4.60829e-22)
(1.314 -0.00619709 -2.27118e-22)
(1.30993 -0.0142068 -7.76497e-21)
(1.27718 0.0513662 0)
(1.28618 0.0445452 1.9047e-21)
(1.29386 0.0376714 2.92961e-21)
(1.30015 0.0307817 -5.32851e-22)
(1.30504 0.0239068 3.66359e-22)
(1.3085 0.0170715 4.17616e-22)
(1.31055 0.0102959 -8.43473e-22)
(1.31116 0.00358363 -5.77953e-21)
(1.31042 -0.00304049 -6.43021e-22)
(1.30814 -0.00977779 2.12547e-22)
(1.27049 0.0450296 0)
(1.27936 0.0392575 -9.5217e-22)
(1.28699 0.0334483 1.48119e-22)
(1.29335 0.0276318 -1.47365e-22)
(1.29842 0.021832 0)
(1.30221 0.0160692 0)
(1.30473 0.0103594 0)
(1.306 0.00470684 6.72842e-21)
(1.30607 -0.000870767 -6.29557e-21)
(1.30502 -0.00649514 0)
(1.26452 0.0387609 0)
(1.27322 0.0339393 -4.68595e-22)
(1.28076 0.0290925 -8.18355e-22)
(1.28711 0.0242438 -1.409e-21)
(1.29226 0.019412 3.05644e-22)
(1.29623 0.0146127 -2.34214e-21)
(1.29904 0.00985852 2.49695e-21)
(1.30073 0.00515326 0)
(1.30134 0.000509131 2.04926e-22)
(1.30108 -0.004139 6.11792e-21)
(1.25925 0.0325699 4.89158e-23)
(1.26778 0.0286186 3.60779e-22)
(1.2752 0.0246511 1.05369e-21)
(1.28149 0.0206849 9.88472e-22)
(1.28664 0.016734 0)
(1.29068 0.0128099 3.06665e-21)
(1.29365 0.0089219 -3.57964e-21)
(1.29558 0.00507284 3.53976e-22)
(1.29652 0.0012705 3.20701e-21)
(1.29674 -0.00251289 -8.85211e-21)
(1.25471 0.0264622 -4.90869e-23)
(1.26306 0.0233164 1.93129e-22)
(1.27034 0.0201613 -2.96671e-22)
(1.27653 0.017009 9.43163e-22)
(1.28163 0.0138691 0)
(1.28567 0.0107499 0)
(1.28869 0.00765736 -3.3802e-22)
(1.29074 0.00459296 3.37792e-21)
(1.29186 0.00156077 2.55256e-21)
(1.29231 -0.00144459 2.87856e-21)
(1.25089 0.0204388 0)
(1.25906 0.018048 -3.60866e-22)
(1.26619 0.0156519 2.12004e-22)
(1.27226 0.0132591 -8.05097e-22)
(1.27728 0.0108756 -2.46825e-22)
(1.28127 0.00850619 3.0554e-22)
(1.28427 0.00615469 -6.29539e-22)
(1.28635 0.00382074 -2.39532e-21)
(1.28753 0.00150564 0)
(1.28807 -0.000785002 0)
(1.24779 0.0144986 0)
(1.25579 0.0128228 -1.16918e-22)
(1.26276 0.0111445 3.57858e-22)
(1.26871 0.00946909 0)
(1.27362 0.00779966 4.98312e-22)
(1.27753 0.00613864 2.94718e-22)
(1.28047 0.00448774 9.11743e-22)
(1.28252 0.00284533 3.27172e-22)
(1.2837 0.00121083 -1.5979e-22)
(1.2842 -0.00040697 -1.65117e-22)
(1.24541 0.00864134 0)
(1.25324 0.00765051 1.17374e-22)
(1.26007 0.0066591 1.74315e-22)
(1.26588 0.00566956 -3.20663e-22)
(1.27068 0.004683 -2.73801e-22)
(1.27449 0.00370024 -2.73581e-22)
(1.27736 0.00272174 -1.52321e-21)
(1.27933 0.00174567 1.25574e-21)
(1.28046 0.000770793 -3.20801e-22)
(1.28087 -0.000197382 0)
(1.24376 0.00285971 0)
(1.25143 0.00253533 -4.23985e-23)
(1.25812 0.00220988 4.93854e-23)
(1.2638 0.00188411 -5.97653e-23)
(1.26849 0.00155811 0)
(1.2722 0.001232 1.88142e-22)
(1.27498 0.000906169 -2.11148e-22)
(1.27686 0.000579427 -2.29434e-22)
(1.2779 0.000250909 0)
(1.27819 -7.02946e-05 0)
(1.08043 0.354168 0)
(1.07903 0.385118 -1.65298e-20)
(1.07512 0.421614 0)
(1.06869 0.461637 -4.57588e-20)
(1.05922 0.505187 2.17068e-20)
(1.04558 0.552497 2.77179e-21)
(1.0262 0.603457 -9.50568e-22)
(0.998989 0.657591 -8.56773e-21)
(0.960691 0.714574 0)
(0.904077 0.777151 -1.80319e-20)
(1.12779 0.355255 2.87236e-20)
(1.13103 0.384964 1.6534e-20)
(1.13163 0.419984 -8.34762e-21)
(1.13023 0.458488 1.56692e-20)
(1.12648 0.500092 -1.0109e-22)
(1.11927 0.544878 9.26737e-21)
(1.1071 0.592638 -1.72018e-21)
(1.08799 0.64278 8.43078e-21)
(1.05894 0.694928 8.21787e-22)
(1.01236 0.75343 2.71408e-20)
(1.17399 0.34937 -7.0277e-21)
(1.18098 0.377447 4.51875e-21)
(1.18586 0.410283 8.35398e-21)
(1.18921 0.446185 6.0125e-21)
(1.19067 0.484645 2.85574e-21)
(1.18918 0.525598 -1.3426e-21)
(1.18335 0.56871 9.86561e-21)
(1.17136 0.613269 -1.38372e-20)
(1.15046 0.658834 -1.87315e-20)
(1.11304 0.71141 1.48394e-20)
(1.21818 0.336259 1.35454e-20)
(1.22829 0.362314 -4.53086e-21)
(1.23684 0.392433 0)
(1.24427 0.424942 0)
(1.25012 0.459297 0)
(1.2534 0.495309 -1.78835e-20)
(1.25281 0.532528 2.71587e-20)
(1.24666 0.570135 0)
(1.23254 0.607612 -2.5036e-20)
(1.20312 0.652607 4.27196e-20)
(1.25973 0.316915 4.71361e-21)
(1.27218 0.34038 -1.15369e-21)
(1.28357 0.367123 0)
(1.29412 0.39548 0)
(1.3033 0.424878 -9.65471e-21)
(1.31017 0.455005 -1.29329e-20)
(1.31348 0.4853 -8.78548e-21)
(1.3117 0.514838 -2.18901e-20)