/*--------------------------------*- C++ -*----------------------------------*\
  =========                 |
  \\      /  F ield         | OpenFOAM: The Open Source CFD Toolbox
   \\    /   O peration     | Website:  https://openfoam.org
    \\  /    A nd           | Version:  7
     \\/     M anipulation  |
\*---------------------------------------------------------------------------*/
FoamFile
{
    version     2.0;
    format      ascii;
    class       volVectorField;
    location    "1488";
    object      U;
}
// * * * * * * * * * * * * * * * * * * * * * * * * * * * * * * * * * * * * * //

dimensions      [0 1 -1 0 0 0 0];

internalField   nonuniform List<vector> 
31744
(
(1.4839004 0.00025171738 1.3155713e-24)
(1.4828919 0.00075553825 1.2432871e-27)
(1.4808786 0.0012591328 -1.3183848e-24)
(1.4778583 0.0017623488 2.8442164e-27)
(1.4738321 0.0022650318 1.3350943e-24)
(1.4688014 0.0027670246 4.5790624e-27)
(1.4627677 0.0032681659 -1.3548837e-24)
(1.4557331 0.00376829 6.1493745e-27)
(1.4476996 0.0042672258 6.9930499e-27)
(1.4386698 0.0047647954 7.8460259e-27)
(1.4286467 0.0052608142 8.7097129e-27)
(1.4176335 0.0057550889 9.5854858e-27)
(1.4056339 0.0062474173 1.0474948e-26)
(1.392652 0.0067375871 1.137974e-26)
(1.3786924 0.0072253745 1.2301224e-26)
(1.36376 0.0077105435 1.3241428e-26)
(1.3478603 0.0081928444 1.4202363e-26)
(1.3309994 0.008672012 1.5185989e-26)
(1.3131838 0.0091477648 -1.6872764e-26)
(1.2944205 0.0096198026 1.7231334e-26)
(1.2747174 0.010087805 1.8298365e-26)
(1.2540829 0.010551428 1.7287233e-24)
(1.232526 0.011010304 2.0965833e-26)
(1.2100566 0.011464037 -1.7697018e-24)
(1.1866855 0.011912199 2.2934238e-26)
(1.1624242 0.012354329 1.9072916e-24)
(1.1372853 0.012789924 2.6063746e-26)
(1.1112824 0.013218439 -1.9851216e-24)
(1.0844301 0.013639275 2.8351142e-26)
(1.0567446 0.014051781 0)
(1.0282431 0.014455237 0)
(0.99894436 0.014848853 1.5182728e-26)
(0.96886899 0.015231749 1.6725105e-26)
(0.93803922 0.015602969 -1.1338711e-24)
(0.90647932 0.015961396 1.8539506e-26)
(0.87421577 0.016305864 2.5832901e-24)
(0.84127756 0.016634995 -2.328111e-26)
(0.80769628 0.016947289 -2.5762942e-28)
(0.7735066 0.017241041 2.8753535e-24)
(0.73874649 0.0175143 -3.0789498e-24)
(0.70345764 0.01776485 -1.5577513e-24)
(0.6676858 0.017990217 -8.6035514e-26)
(0.63148144 0.018187559 -6.5286632e-24)
(0.59490018 0.018353572 2.9000696e-26)
(0.55800361 0.018484537 5.3853289e-24)
(0.5208603 0.018576061 2.0319549e-24)
(0.48354687 0.018623116 -8.2774958e-26)
(0.44614975 0.018619892 -8.0402929e-26)
(0.40876722 0.018559555 1.711121e-25)
(0.37151209 0.018434238 5.090087e-26)
(0.3345151 0.01823468 4.2400543e-24)
(0.29792918 0.017950134 1.653906e-26)
(0.2619343 0.017568157 -2.4025304e-24)
(0.22674321 0.017074323 -2.0874735e-25)
(0.19260745 0.016452031 -2.8614981e-24)
(0.15982326 0.015682312 -5.7146775e-24)
(0.12873712 0.014743546 -4.0337679e-26)
(0.099749818 0.013611299 1.3124377e-23)
(0.073318902 0.012257982 -3.8943697e-25)
(0.049957803 0.010652344 -7.2042933e-24)
(0.030221753 0.0087581557 2.1698061e-24)
(0.014716478 0.0065305358 -7.9296449e-26)
(0.0042172773 0.0039058971 -2.7731516e-24)
(0.00059030195 0.0012233986 5.6942249e-26)
(0.00059027366 -0.0012233053 4.9522021e-25)
(0.0042169822 -0.0039056206 4.7912163e-24)
(0.014715507 -0.0065300969 -2.3177833e-24)
(0.030219811 -0.008757561 2.3188946e-25)
(0.049954661 -0.010651629 2.2108685e-24)
(0.073314376 -0.012257181 5.8992429e-26)
(0.099743799 -0.013610444 1.9874971e-25)
(0.12872957 -0.014742662 5.6057395e-24)
(0.15981414 -0.015681424 1.2073473e-26)
(0.19259677 -0.016451147 -5.3495516e-24)
(0.22673101 -0.01707344 -2.5254848e-24)
(0.26192059 -0.017567304 8.2303731e-27)
(0.29791403 -0.017949312 2.5283353e-24)
(0.33449856 -0.018233896 -6.5168037e-27)
(0.37149422 -0.018433498 5.1941169e-26)
(0.40874812 -0.018558863 -4.5171456e-24)
(0.44612949 -0.018619226 1.9260011e-24)
(0.48352552 -0.018622515 7.7736935e-24)
(0.52083797 -0.018575499 -5.4919296e-24)
(0.55798042 -0.018484022 -3.4663743e-24)
(0.59487619 -0.018353106 3.5366084e-24)
(0.63145674 -0.01818714 -1.614049e-24)
(0.66766048 -0.017989845 -4.770456e-24)
(0.7034318 -0.017764523 1.6842647e-24)
(0.73872022 -0.017514017 5.9114929e-24)
(0.77347998 -0.017240802 4.1189253e-24)
(0.8076694 -0.016947093 -1.4019235e-24)
(0.8412505 -0.01663484 -3.9574858e-24)
(0.87418862 -0.016305748 4.2605911e-26)
(0.90645215 -0.015961319 2.0197271e-26)
(0.93801211 -0.015602928 -2.4010696e-24)
(0.96884201 -0.015231744 1.2295989e-24)
(0.99891758 -0.014848883 2.1728837e-24)
(1.0282166 -0.014455299 -1.1249402e-24)
(1.0567184 -0.014051874 0)
(1.0844044 -0.013639398 -2.8344112e-26)
(1.111257 -0.01321859 0)
(1.1372605 -0.012790101 -2.5518498e-26)
(1.1624 -0.012354531 -2.4196104e-26)
(1.1866619 -0.011912424 1.8129012e-24)
(1.2100336 -0.011464282 -2.2160753e-26)
(1.2325037 -0.01101057 -1.7695673e-24)
(1.2540613 -0.010551713 -1.9393145e-26)
(1.2746967 -0.010088109 1.6532027e-24)
(1.2944006 -0.009620125 -1.7586722e-26)
(1.3131647 -0.0091481039 -1.5857493e-24)
(1.3309812 -0.0086723661 -1.5180897e-26)
(1.3478431 -0.008193212 -1.419706e-26)
(1.3637437 -0.0077109234 -1.3236012e-26)
(1.378677 -0.0072257655 -1.2295706e-26)
(1.3926376 -0.0067379882 -1.1374236e-26)
(1.4056205 -0.0062478275 -1.0469666e-26)
(1.4176212 -0.0057555073 -9.580345e-27)
(1.4286354 -0.00526124 -8.7045758e-27)
(1.4386596 -0.0047652279 -7.8408617e-27)
(1.4476905 -0.0042676642 -6.9878039e-27)
(1.4557251 -0.0037687337 -6.1440842e-27)
(1.4627609 -0.003268614 5.5307106e-27)
(1.4687957 -0.0027674764 -4.4798876e-27)
(1.4738276 -0.0022654867 -3.6571379e-27)
(1.4778551 -0.001762806 1.3220049e-24)
(1.480877 -0.0012595917 -2.0670631e-27)
(1.4828925 -0.00075599831 -1.3176053e-24)
(1.4839013 -0.00025217812 -4.1068511e-28)
(1.4841172 0.00075323374 1.3410373e-24)
(1.4831109 0.0022649308 -3.5383363e-38)
(1.4810996 0.0037754385 -1.3182489e-24)
(1.4780829 0.0052845739 2.9301929e-38)
(1.4740617 0.006792044 1.3297596e-24)
(1.4690374 0.0082974153 2.7318045e-24)
(1.4630115 0.009800217 -1.3476771e-24)
(1.4559858 0.011299958 -2.7751292e-24)
(1.4479626 0.012796129 -3.0928865e-38)
(1.4389443 0.014288197 2.0384399e-38)
(1.4289341 0.015775609 -4.3319228e-38)
(1.417935 0.017257785 8.9577742e-39)
(1.4059509 0.018734118 -4.1010317e-39)
(1.3929858 0.020203972 -3.3261958e-38)
(1.3790443 0.021666675 4.8842076e-38)
(1.3641314 0.023121517 5.6167815e-38)
(1.3482525 0.024567749 -6.3631629e-39)
(1.3314138 0.026004575 3.2045679e-24)
(1.3136216 0.027431149 -7.3443291e-38)
(1.2948833 0.028846571 -3.3365436e-24)
(1.2752065 0.030249878 4.3215576e-38)
(1.2545996 0.031640041 1.7070873e-24)
(1.2330719 0.033015955 -5.4838532e-38)
(1.2106331 0.034376431 -1.7890169e-24)
(1.187294 0.035720186 4.2437556e-38)
(1.1630663 0.037045833 1.8804964e-24)
(1.1379624 0.038351866 1.9300518e-24)
(1.111996 0.039636649 -1.9822956e-24)
(1.0851819 0.040898391 -4.7099305e-39)
(1.057536 0.042135133 2.0953343e-24)
(1.0290757 0.043344724 -2.1563914e-24)
(0.99981971 0.044524788 -1.2149396e-24)
(0.96978866 0.045672721 2.2752447e-24)
(0.93900477 0.046785565 1.1259042e-24)
(0.90749228 0.047860119 -2.6944253e-24)
(0.8752777 0.048892779 -1.0842463e-28)
(0.84238989 0.049879491 2.773934e-24)
(0.80886047 0.050815709 1.2624622e-24)
(0.77472401 0.051696305 1.4063609e-24)
(0.74001839 0.052515505 -1.3333187e-24)
(0.70478516 0.053266715 3.9817505e-26)
(0.66906992 0.053942496 -2.9990428e-24)
(0.63292288 0.05453431 -3.3026613e-24)
(0.59639939 0.055032354 -4.2930485e-25)
(0.55956064 0.055425422 1.7530808e-24)
(0.52247468 0.055700511 5.6233146e-24)
(0.48521743 0.055842565 -3.6012908e-24)
(0.44787435 0.055834142 -2.1628795e-24)
(0.41054255 0.055654993 1.9606336e-24)
(0.3733332 0.05528143 5.4533072e-27)
(0.336375 0.054685864 1.9918951e-24)
(0.29981827 0.05383617 2.7499798e-24)
(0.26383984 0.052695013 -1.7714726e-25)
(0.22864847 0.051219121 -2.451064e-24)
(0.19449109 0.049358526 2.9700056e-24)
(0.16165859 0.047055792 5.8450503e-24)
(0.13049146 0.044245225 -3.3480356e-24)
(0.10138418 0.040851823 -6.4719924e-24)
(0.074788311 0.036790012 5.6715096e-25)
(0.051212787 0.031961075 5.5677772e-25)
(0.031212026 0.026248207 7.3534889e-24)
(0.015398041 0.019505385 -2.3244602e-24)
(0.0045748223 0.011535607 -1.9085783e-23)
(0.0007202478 0.0035726911 -6.563922e-25)
(0.00072020891 -0.0035724326 8.5872703e-25)
(0.0045744979 -0.011534809 9.2224245e-24)
(0.015397009 -0.019504105 8.5107616e-24)
(0.03121002 -0.026246547 4.1962392e-24)
(0.051209558 -0.031959085 -7.3757308e-24)
(0.074783687 -0.036787823 -3.5043374e-24)
(0.10137808 -0.040849498 -3.0042218e-24)
(0.13048383 -0.044242825 -7.245287e-25)
(0.1616494 -0.047053366 2.475191e-24)
(0.19448036 -0.049356097 3.2041457e-24)
(0.22863621 -0.05121673 8.839951e-27)
(0.26382608 -0.052692688 2.7325918e-24)
(0.29980309 -0.053833937 -1.6631493e-26)
(0.33635843 -0.054683739 -4.5982992e-24)
(0.37331531 -0.055279405 -4.2497199e-24)
(0.41052343 -0.055653084 1.4998744e-25)
(0.4478541 -0.055832381 4.1605568e-24)
(0.48519608 -0.055840921 1.2166182e-25)
(0.52245236 -0.055699009 -4.8393531e-25)
(0.55953747 -0.055424059 1.7610008e-25)
(0.59637542 -0.055031133 3.4626683e-24)
(0.6328982 -0.054533229 3.6135147e-25)
(0.66904464 -0.053941553 -2.8773926e-24)
(0.70475935 -0.053265909 2.4563515e-25)
(0.73999215 -0.052514832 -1.6257316e-24)
(0.77469742 -0.051695763 -4.0987962e-26)
(0.80883363 -0.050815294 1.1855899e-24)
(0.84236287 -0.0498792 2.7737613e-24)
(0.87525059 -0.048892608 1.1870492e-24)
(0.90746516 -0.047860064 -3.7031371e-24)
(0.93897771 -0.046785622 -1.2819609e-24)
(0.96976174 -0.045672885 -1.0830782e-24)
(0.99979299 -0.044525055 -5.1715444e-26)
(1.0290492 -0.04334509 2.1562134e-24)
(1.0575099 -0.042135592 -2.0951541e-24)
(1.0851562 -0.04089894 3.5156286e-39)
(1.1119708 -0.039637283 -5.8410869e-39)
(1.1379377 -0.03835258 -1.9298653e-24)
(1.1630421 -0.037046622 -4.1548792e-38)
(1.1872705 -0.035721045 1.833338e-24)
(1.2106102 -0.034377357 -8.9268061e-38)
(1.2330497 -0.033016945 -1.7467241e-24)
(1.2545782 -0.031641091 -5.3568149e-38)
(1.2751858 -0.030250984 1.6693289e-24)
(1.2948634 -0.02884773 3.3362035e-24)
(1.3136026 -0.027432357 -1.6005716e-24)
(1.3313956 -0.026005828 -3.2042488e-24)
(1.3482353 -0.024569044 4.3010035e-39)
(1.3641151 -0.023122851 4.548112e-38)
(1.379029 -0.021668045 -2.8971925e-38)
(1.3929715 -0.020205375 4.8550726e-38)
(1.4059376 -0.018735552 5.7892029e-39)
(1.4179227 -0.017259247 3.7443351e-38)
(1.4289228 -0.015777098 -2.1209796e-38)
(1.4389342 -0.014289712 -4.5796649e-39)
(1.4479535 -0.01279767 2.9779012e-38)
(1.4559778 -0.011301527 2.7749711e-24)
(1.4630046 -0.009801816 3.1386182e-38)
(1.4690317 -0.0082990541 -2.7316863e-24)
(1.4740572 -0.0067937422 5.9882031e-38)
(1.4780796 -0.0052863708 1.3232429e-24)
(1.4810975 -0.0037774248 3.2794802e-38)
(1.4831103 -0.0022674069 -1.3428399e-24)
(1.4841172 -0.00075694479 -5.0644193e-38)
(1.4845478 0.0012560493 1.3086501e-24)
(1.4835444 0.0037722745 -6.2409931e-27)
(1.481538 0.0062872246 -1.3252937e-24)
(1.4785289 0.0088001949 -1.4207889e-26)
(1.4745179 0.011310466 1.3081986e-24)
(1.4695064 0.013817262 -2.2395159e-26)
(1.4634958 0.016319783 -1.3167071e-24)
(1.4564881 0.018817202 -3.0704338e-26)
(1.4484853 0.021308666 -3.491658e-26)
(1.4394902 0.023793287 -3.9175401e-26)
(1.4295056 0.026270139 -4.3487427e-26)
(1.4185349 0.028738256 -4.7859494e-26)
(1.4065817 0.031196624 -5.2298968e-26)
(1.3936501 0.03364418 -5.6813793e-26)
(1.3797448 0.036079803 -6.1412313e-26)
(1.3648707 0.038502309 -6.6103695e-26)
(1.3490334 0.040910447 -7.0897696e-26)
(1.3322389 0.043302888 -7.580472e-26)
(1.3144938 0.045678221 8.4220352e-26)
(1.2958052 0.048034943 -8.6005099e-26)
(1.2761809 0.050371449 -9.1324221e-26)
(1.2556294 0.052686021 1.6058115e-24)
(1.2341598 0.054976816 -1.0247459e-25)
(1.2117822 0.057241851 -1.8925689e-24)
(1.1885071 0.05947899 -1.1442292e-25)
(1.1643463 0.061685919 1.7545762e-24)
(1.1393124 0.06386013 -1.2732904e-25)
(1.113419 0.065998897 -1.9766558e-24)
(1.0866809 0.068099238 -1.4140179e-25)
(1.0591141 0.070157894 0)
(1.030736 0.07217128 3.2697951e-24)
(1.0015653 0.074135472 2.1412923e-24)
(0.97162273 0.076046062 -3.2833577e-24)
(0.94093035 0.077898251 -2.4428989e-24)
(0.90951248 0.079686663 9.1656997e-26)
(0.8773955 0.081405293 -2.1229589e-25)
(0.84460825 0.083047433 2.8122033e-24)
(0.81118217 0.08460554 1.1846496e-25)
(0.77715173 0.086071111 -2.6345194e-24)
(0.74255459 0.087434579 1.214382e-25)
(0.707432 0.088685027 1.3555639e-25)
(0.67182921 0.089810125 -1.4812698e-25)
(0.63579595 0.090795754 -3.0167876e-25)
(0.59938692 0.091625686 -3.464331e-24)
(0.56266256 0.092281373 -3.5890071e-25)
(0.52568983 0.092741372 1.7211283e-24)
(0.48854334 0.092980809 1.3891452e-24)
(0.45130682 0.092970911 1.6131809e-24)
(0.41407509 0.092678137 -2.3826983e-24)
(0.37695642 0.092063414 4.6041597e-24)
(0.3400759 0.091081167 -4.3486394e-25)
(0.30357927 0.089678303 -2.7049947e-24)
(0.26763762 0.087792988 5.2219395e-25)
(0.23245287 0.085353375 -5.5801994e-24)
(0.19826359 0.082276287 -3.7214433e-26)
(0.16535103 0.078465641 1.1638296e-24)
(0.13404468 0.073810808 8.3286469e-25)
(0.10472714 0.068184548 3.2132059e-24)
(0.077837909 0.061440086 -6.3717018e-24)
(0.053875473 0.05340648 7.3062457e-24)
(0.033388069 0.043880519 7.5628627e-24)
(0.016988266 0.032611248 -7.2759325e-24)
(0.0055120707 0.019277406 -1.1045544e-23)
(0.0010067418 0.0059921593 -1.5681423e-24)
(0.0010066858 -0.0059917456 1.398658e-24)
(0.0055116967 -0.019276117 1.1980216e-23)
(0.016987142 -0.032609138 2.6289417e-24)
(0.033385939 -0.043877799 3.7472285e-24)
(0.053872123 -0.053403281 -6.1028175e-25)
(0.077833142 -0.061436527 -3.3837735e-24)
(0.10472092 -0.068180791 -5.4617237e-24)
(0.13403696 -0.073806925 4.1844025e-25)
(0.16534173 -0.078461673 7.4719222e-24)
(0.19825275 -0.082272334 -1.4069132e-25)
(0.23244052 -0.085349487 -2.764296e-24)
(0.26762378 -0.087789194 3.8842779e-25)
(0.30356402 -0.089674672 -8.3637176e-25)
(0.34005928 -0.0910777 0)
(0.37693848 -0.092060117 2.2006747e-24)
(0.41405592 -0.092675042 2.0692895e-25)
(0.45128654 -0.092968029 1.6527834e-24)
(0.48852202 -0.092978156 -1.5617558e-24)
(0.52566754 -0.092738934 -1.7042705e-24)
(0.56263941 -0.092279171 1.659275e-24)
(0.59936296 -0.091623712 3.3648491e-25)
(0.6357713 -0.090794024 -4.4716994e-25)
(0.67180397 -0.089808619 -1.6140626e-24)
(0.70740625 -0.088683747 1.2427596e-25)
(0.74252842 -0.087433521 3.1073072e-24)
(0.77712522 -0.086070271 -1.1628871e-25)
(0.81115541 -0.084604912 -1.511689e-24)
(0.84458131 -0.083047011 -2.4801182e-24)
(0.87736848 -0.08140507 -1.4110745e-24)
(0.90948545 -0.079686633 1.4653029e-24)
(0.94090338 -0.077898407 1.7861863e-25)
(0.9715959 -0.076046397 1.0927439e-24)
(1.0015387 -0.074135978 -1.3533508e-26)
(1.0307096 -0.07217195 0)
(1.0590881 -0.07015872 0)
(1.0866553 -0.068100213 1.4136784e-25)
(1.1133938 -0.066000013 0)
(1.1392878 -0.06386138 1.2730028e-25)
(1.1643222 -0.061687294 1.2071411e-25)
(1.1884836 -0.059480484 1.9427574e-24)
(1.2117593 -0.057243458 1.0830785e-25)
(1.2341377 -0.054978528 -1.6396614e-24)
(1.255608 -0.052687832 9.6777959e-26)
(1.2761603 -0.050373354 1.7562957e-24)
(1.2957854 -0.048036936 8.5975411e-26)
(1.3144749 -0.045680295 -1.6806765e-24)
(1.3322209 -0.043305038 7.5775967e-26)
(1.3490163 -0.040912667 7.0869214e-26)
(1.3648545 -0.038504595 6.6075533e-26)
(1.3797296 -0.036082149 6.1384398e-26)
(1.3936359 -0.033646582 5.6786092e-26)
(1.4065684 -0.031199078 5.2271483e-26)
(1.4185227 -0.028740758 4.783221e-26)
(1.4294945 -0.026272687 4.346042e-26)
(1.4394801 -0.023795879 3.9148765e-26)
(1.4484763 -0.021311302 3.489034e-26)
(1.4564801 -0.018819883 3.0678582e-26)
(1.463489 -0.016322512 -2.7616936e-26)
(1.4695007 -0.01382005 2.2370458e-26)
(1.4745134 -0.01131333 1.8262544e-26)
(1.4785255 -0.0088031627 1.3341554e-24)
(1.4815358 -0.0062903437 1.0104568e-26)
(1.4835433 -0.003775658 -1.3060035e-24)
(1.4845475 -0.0012599222 1.888037e-27)
(1.4851861 0.0017568397 1.3054534e-24)
(1.4841867 0.0052747435 -1.1681306e-37)
(1.4821879 0.0087910395 -1.310282e-24)
(1.4791903 0.012304659 0)
(1.4751946 0.015814524 1.3215723e-24)
(1.4702022 0.019319533 -5.9836495e-38)
(1.4642147 0.022818556 -1.3393679e-24)
(1.4572337 0.026310433 0)
(1.4492617 0.029793963 0)
(1.4403012 0.0332679 0)
(1.4303551 0.036730944 0)
(1.4194267 0.04018174 0)
(1.4075198 0.043618865 0)
(1.3946385 0.047040828 0)
(1.3807873 0.050446055 0)
(1.3659714 0.053832884 0)
(1.3501963 0.057199561 0)
(1.333468 0.060544221 0)
(1.3157932 0.063864885 0)
(1.297179 0.067159444 0)
(1.2776333 0.070425648 0)
(1.2571647 0.073661089 1.6959368e-24)
(1.2357822 0.076863183 -7.5186414e-38)
(1.2134959 0.080029155 -1.7770685e-24)
(1.1903166 0.083156008 0)
(1.1662559 0.086240508 1.8675864e-24)
(1.1413266 0.089279144 3.833173e-30)
(1.1155424 0.092268103 -1.8705787e-24)
(1.0889179 0.095203217 0)
(1.0614694 0.098079932 0)
(1.0332142 0.10089325 0)
(1.0041711 0.10363767 -1.8527343e-24)
(0.97436067 0.10630708 2.5307857e-25)
(0.94380512 0.10889476 -2.4511474e-25)
(0.91252861 0.11139326 -1.4053944e-25)
(0.88055749 0.11379417 -1.0416041e-25)
(0.84792045 0.11608818 -1.3412418e-24)
(0.81464879 0.11826481 1.8678615e-24)
(0.78077673 0.12031225 1.2595457e-24)
(0.74634155 0.12221718 1.3500751e-24)
(0.71138413 0.12396451 3.2831588e-24)
(0.67594919 0.1255371 1.2938991e-25)
(0.64008569 0.1269154 -2.8848268e-24)
(0.60384747 0.12807696 4.4628532e-25)
(0.56729377 0.1289961 -4.9452108e-25)
(0.53049001 0.12964317 5.3937575e-24)
(0.4935089 0.12998389 -1.2413093e-26)
(0.45643168 0.12997844 -2.0470094e-24)
(0.41934992 0.12958049 -3.9814448e-24)
(0.38236794 0.12873617 -1.6867378e-24)
(0.34560572 0.12738254 8.1185845e-24)
(0.30920265 0.12544622 -2.7982248e-24)
(0.27332196 0.12284165 1.2690051e-24)
(0.23815594 0.11946915 2.2190379e-25)
(0.20393174 0.11521294 -8.6455073e-24)
(0.17091704 0.10993872 2.8506777e-25)
(0.13942585 0.10349082 6.5456636e-24)
(0.1098236 0.095688892 -2.5377721e-24)
(0.082531797 0.08632308 -6.7929464e-25)
(0.058031532 0.075147603 2.0689967e-24)
(0.036856162 0.061870341 -4.2248106e-25)
(0.01960596 0.04613689 4.138226e-24)
(0.0071515463 0.027519851 5.8435382e-24)
(0.0014976293 0.0087349132 -1.4211308e-25)
(0.0014975404 -0.008734312 -5.5750688e-25)
(0.0071510682 -0.027518035 -5.6399161e-24)
(0.01960469 -0.046133945 1.1980544e-23)
(0.036853841 -0.061866548 3.4165742e-24)
(0.058027982 -0.075143177 -6.0696959e-24)
(0.082526845 -0.08631818 2.6168061e-25)
(0.10981717 -0.095683675 -6.4001863e-27)
(0.13941794 -0.10348545 -6.7292726e-24)
(0.17090756 -0.10993325 -2.8399937e-24)
(0.20392071 -0.11520748 4.7492336e-24)
(0.23814345 -0.11946379 7.5776982e-24)
(0.27330799 -0.12283641 -8.5330544e-25)
(0.30918727 -0.12544117 -4.1218066e-24)
(0.34558902 -0.12737774 2.0775495e-24)
(0.38234996 -0.12873162 -2.180536e-24)
(0.41933074 -0.12957623 -2.7276944e-24)
(0.45641137 -0.12997446 5.8541402e-24)
(0.49348758 -0.12998023 1.3747607e-24)
(0.53046775 -0.12963983 -3.2828054e-24)
(0.56727065 -0.12899308 3.4202464e-24)
(0.60382357 -0.12807426 -2.0261636e-24)
(0.64006111 -0.12691301 -3.4042522e-24)
(0.67592403 -0.12553505 1.6085875e-24)
(0.71135847 -0.12396277 1.5370635e-24)
(0.74631548 -0.12221575 -1.5888083e-24)
(0.78075033 -0.12031112 -3.0412595e-24)
(0.81462215 -0.11826398 1.5642617e-24)
(0.84789364 -0.11608763 2.5259738e-24)
(0.8805306 -0.1137939 4.1792957e-24)
(0.91250172 -0.11139326 -1.2184202e-24)
(0.9437783 -0.10889502 -3.5242417e-24)
(0.974334 -0.10630759 -1.0875624e-24)
(1.0041447 -0.10363842 6.766689e-30)
(1.033188 -0.10089423 1.1147593e-24)
(1.0614436 -0.098081126 0)
(1.0888925 -0.095204619 0)
(1.1155174 -0.092269701 -9.762339e-26)
(1.1413021 -0.089280929 0)
(1.166232 -0.08624247 0)
(1.1902932 -0.083158136 1.8209316e-24)
(1.2134732 -0.080031439 6.3828978e-41)
(1.2357602 -0.076865616 -1.7351941e-24)
(1.2571434 -0.07366366 0)
(1.2776129 -0.070428349 1.6585262e-24)
(1.2971594 -0.067162267 7.3848973e-38)
(1.3157744 -0.063867821 -1.5903721e-24)
(1.3334501 -0.060547263 0)
(1.3501793 -0.057202701 0)
(1.3659553 -0.053836115 0)
(1.3807722 -0.05044937 0)
(1.3946243 -0.047044222 0)
(1.4075066 -0.043622332 0)
(1.4194146 -0.040185274 0)
(1.430344 -0.036734542 0)
(1.4402912 -0.033271559 0)
(1.4492528 -0.029797681 0)
(1.4572258 -0.026314211 0)
(1.4642078 -0.022822396 0)
(1.4701965 -0.019323441 0)
(1.47519 -0.015818513 0)
(1.4791868 -0.012308745 1.3150849e-24)
(1.4821855 -0.0087952456 1.177043e-37)
(1.4841854 -0.0052791004 -1.3070541e-24)
(1.4851857 -0.0017613853 0)
(1.4860232 0.0022551965 1.3026216e-24)
(1.4850289 0.0067704664 1.0922493e-26)
(1.4830403 0.011283699 -1.2856104e-24)
(1.4800579 0.015793506 2.5491245e-26)
(1.4760826 0.020298492 1.3478525e-24)
(1.4711157 0.024797232 4.0192707e-26)
(1.4651587 0.029288271 -1.3823437e-24)
(1.4582136 0.033770109 5.50989e-26)
(1.4502824 0.038241198 6.2654339e-26)
(1.4413679 0.04269993 7.0292415e-26)
(1.431473 0.047144632 7.8024659e-26)
(1.4206009 0.051573553 8.5863289e-26)
(1.4087556 0.055984862 9.3821287e-26)
(1.395941 0.060376632 1.0191254e-25)
(1.382162 0.064746835 1.1015189e-25)
(1.3674234 0.069093329 1.1855534e-25)
(1.3517309 0.07341385 1.2714005e-25)
(1.3350907 0.077705994 1.3592462e-25)
(1.3175093 0.081967211 -1.5099621e-25)
(1.2989941 0.086194782 1.5417573e-25)
(1.2795528 0.090385807 1.6368796e-25)
(1.2591942 0.094537185 1.8605493e-24)
(1.2379274 0.098645592 1.8361606e-25)
(1.2157624 0.10270745 -1.5734672e-24)
(1.1927103 0.10671892 2.0495219e-25)
(1.1687827 0.11067582 2.0735532e-24)
(1.1439923 0.11457366 -7.6484613e-25)
(1.1183529 0.11840753 -1.7168006e-24)
(1.0918794 0.1221721 1.0475383e-24)
(1.0645879 0.12586151 0)
(1.0364958 0.12946937 0)
(1.007622 0.13298863 1.2367751e-26)
(0.97798692 0.13641148 1.9448107e-24)
(0.94761285 0.13972936 1.2113652e-24)
(0.91652388 0.14293265 -2.5493496e-24)
(0.88474623 0.14601072 -1.0999389e-24)
(0.85230844 0.14895168 -1.7313514e-24)
(0.81924156 0.15174214 1.3757884e-24)
(0.78557948 0.15436709 1.4231749e-24)
(0.75135908 0.15680959 -3.0625832e-24)
(0.71662068 0.15905048 -2.0486268e-26)
(0.68140827 0.16106799 -2.6818566e-25)
(0.6457699 0.16283731 -3.4221048e-24)
(0.60975824 0.16433009 3.3961802e-24)
(0.57343098 0.16551375 3.0717903e-24)
(0.53685164 0.16635081 -2.4741533e-24)
(0.50009045 0.16679797 3.3018594e-24)
(0.46322546 0.16680494 1.0633842e-24)
(0.42634433 0.16631335 -3.3361389e-24)
(0.38954632 0.16525519 -5.1322471e-24)
(0.35294511 0.16355104 4.0261048e-24)
(0.31667237 0.1611084 -4.1894558e-25)
(0.28088146 0.15781907 -8.7803822e-25)
(0.24575287 0.15355692 5.7177338e-24)
(0.21149965 0.14817508 -3.8875221e-24)
(0.17837263 0.14150242 -6.7553359e-24)
(0.14666632 0.13333973 -1.2676667e-26)
(0.11672408 0.12345474 9.0316505e-24)
(0.088943442 0.11157569 1.5333258e-24)
(0.063780137 0.097383005 6.5992662e-24)
(0.041741828 0.080497469 2.0768456e-24)
(0.023402717 0.060468394 -7.5239468e-24)
(0.0096724293 0.036792485 -1.3169934e-24)
(0.0022886015 0.012172536 4.698683e-25)
(0.0022884602 -0.012171704 2.4622012e-26)
(0.0096717929 -0.036790077 3.4705391e-24)
(0.023401233 -0.06046458 -9.2716003e-26)
(0.041739244 -0.080492572 4.2540761e-24)
(0.063776296 -0.097377314 -5.1894012e-25)
(0.088938214 -0.11156944 -6.5232712e-24)
(0.1167174 -0.12344811 4.8419156e-24)
(0.14665812 -0.13333288 -2.9705138e-26)
(0.1783629 -0.14149548 -4.2054986e-24)
(0.21148843 -0.14816816 1.6640562e-25)
(0.2457402 -0.15355011 7.5286548e-24)
(0.28086732 -0.1578124 1.1670674e-24)
(0.31665682 -0.16110197 -6.3368719e-24)
(0.3529283 -0.16354495 -3.1363889e-24)
(0.38952827 -0.16524941 -2.1540093e-24)
(0.42632509 -0.16630794 4.156737e-25)
(0.46320513 -0.16679992 2.3587077e-24)
(0.50006911 -0.16679332 -6.8783755e-25)
(0.5368294 -0.16634657 2.4785893e-24)
(0.57340791 -0.16550992 -3.8466227e-24)
(0.60973442 -0.16432667 -2.4006918e-24)
(0.64574541 -0.16283431 3.5293332e-24)
(0.68138322 -0.16106539 1.2692002e-25)
(0.71659514 -0.15904829 -1.4652309e-25)
(0.75133314 -0.15680779 1.0204216e-24)
(0.78555323 -0.15436568 1.1035668e-24)
(0.81921508 -0.15174111 -1.1650432e-24)
(0.8522818 -0.14895101 -1.347528e-24)
(0.88471952 -0.14601042 1.2894136e-24)
(0.91649718 -0.14293268 -6.043906e-25)
(0.94758622 -0.13972972 -1.1001954e-24)
(0.97796044 -0.13641217 6.7595806e-26)
(1.0075957 -0.13298962 6.2203294e-26)
(1.0364698 -0.12947066 0)
(1.0645622 -0.12586307 0)
(1.0918542 -0.12217393 -1.0474449e-24)
(1.1183281 -0.11840961 8.317081e-31)
(1.143968 -0.11457598 7.6481307e-25)
(1.1687589 -0.11067837 -2.1617764e-25)
(1.1926872 -0.10672167 1.6061657e-24)
(1.21574 -0.10271041 -1.9403499e-25)
(1.2379056 -0.09864874 -1.9095751e-24)
(1.2591731 -0.094540511 -1.73437e-25)
(1.2795326 -0.090389299 1.4862876e-24)
(1.2989746 -0.086198429 -1.5412226e-25)
(1.3174907 -0.081971003 -1.4313025e-24)
(1.3350729 -0.077709922 -1.3587245e-25)
(1.3517141 -0.073417902 -1.2708844e-25)
(1.3674074 -0.069097498 -1.1850426e-25)
(1.382147 -0.064751112 -1.101013e-25)
(1.395927 -0.060381009 -1.0186236e-25)
(1.4087425 -0.055989331 -9.3771492e-26)
(1.4205889 -0.051578109 -8.5813837e-26)
(1.431462 -0.047149268 -7.7975545e-26)
(1.4413579 -0.042704642 -7.0243619e-26)
(1.4502735 -0.038245983 -6.2605817e-26)
(1.4582057 -0.033774965 -5.5050558e-26)
(1.465152 -0.029293199 4.9558055e-26)
(1.47111 -0.024802235 -4.0144056e-26)
(1.476078 -0.020303575 -3.2772073e-26)
(1.4800544 -0.015798678 1.2831346e-24)
(1.4830378 -0.011288967 -1.8142238e-26)
(1.4850275 -0.006775838 -1.3114422e-24)
(1.4860227 -0.0022606652 -3.6732365e-27)
(1.4870468 0.0027506469 1.3179533e-24)
(1.4860589 0.0082575928 2.71824e-26)
(1.484083 0.013762047 -1.2957133e-24)
(1.4811196 0.019262315 -3.4905286e-38)
(1.4771698 0.024756684 1.3068708e-24)
(1.4722347 0.030243412 2.7848488e-24)
(1.4663158 0.035720713 -1.3244617e-24)
(1.4594152 0.041186749 -2.7273022e-24)
(1.451535 0.046639621 -1.9044761e-38)
(1.4426778 0.052077358 2.1088819e-39)
(1.4328467 0.057497908 -1.2325661e-38)
(1.4220449 0.062899124 -2.8556063e-38)
(1.4102762 0.068278758 -5.6303823e-38)
(1.3975449 0.073634448 -5.5384388e-39)
(1.3838555 0.078963705 -4.0476929e-38)
(1.3692133 0.084263903 -4.9620571e-38)
(1.3536238 0.089532262 -1.5880768e-38)
(1.3370931 0.094765837 3.1479511e-24)
(1.3196281 0.099961498 -7.1210228e-38)
(1.301236 0.10511591 -3.2768259e-24)
(1.2819248 0.11022553 -2.238484e-38)
(1.261703 0.11528655 1.6760086e-24)
(1.2405801 0.1202949 4.5675468e-25)
(1.2185662 0.12524621 -1.7557322e-24)
(1.1956722 0.13013576 -1.7554562e-38)
(1.17191 0.13495849 1.8445552e-24)
(1.1472924 0.13970886 5.6681144e-25)
(1.1218331 0.14438092 -1.5236058e-25)
(1.0955472 0.14896815 1.9963636e-24)
(1.0684508 0.15346344 1.6894545e-25)
(1.0405614 0.15785898 2.673262e-25)
(1.0118979 0.16214619 1.5044679e-26)
(0.98248072 0.16631563 9.3691308e-26)
(0.95233208 0.17035687 -8.9960751e-25)
(0.92147602 0.17425829 -1.0203473e-24)
(0.88993864 0.17800699 1.6299841e-24)
(0.85774822 0.18158858 1.3455785e-28)
(0.82493557 0.18498688 -1.363404e-24)
(0.79153419 0.1881838 2.2208223e-24)
(0.75758045 0.1911589 1.4349373e-24)
(0.72311398 0.19388907 -3.31864e-24)
(0.68817789 0.19634816 1.8804258e-24)
(0.65281914 0.19850637 2.5894065e-24)
(0.61708897 0.20032967 2.650934e-26)
(0.58104326 0.20177901 3.3723979e-24)
(0.54474327 0.20280953 -4.0184512e-24)
(0.50825626 0.20336945 -2.6378695e-25)
(0.47165668 0.2033987 2.4296428e-24)
(0.43502753 0.20282763 -3.5779826e-24)
(0.39846217 0.2015751 3.5138252e-24)
(0.36206711 0.19954649 3.659029e-24)
(0.32596484 0.19663137 -1.1694229e-23)
(0.29029762 0.19270074 -5.9819963e-24)
(0.25523241 0.18760407 1.3042059e-23)
(0.2209658 0.18116569 1.5156623e-24)
(0.18772932 0.17318063 -6.3462854e-24)
(0.15579458 0.16340974 -2.6486481e-24)
(0.12547832 0.15157301 1.0447273e-24)
(0.097148162 0.13734206 9.9961914e-25)
(0.071225903 0.12032968 -9.742396e-24)
(0.048182887 0.10007589 4.8552202e-24)
(0.028563536 0.076043317 9.9266129e-24)
(0.01333155 0.047685636 -5.4243625e-24)
(0.0035466312 0.016704912 -1.3050613e-24)
(0.0035464088 -0.016703788 8.2236452e-25)
(0.013330688 -0.047682557 9.0273709e-25)
(0.028561762 -0.076038586 -1.1315381e-23)
(0.048179981 -0.10006989 2.4726768e-24)
(0.071221686 -0.12032272 -1.6983337e-25)
(0.097142573 -0.13733445 -6.2711087e-24)
(0.12547128 -0.15156496 -1.8720142e-24)
(0.15578604 -0.16340142 1.0525969e-24)
(0.18771928 -0.17317223 -4.6543643e-24)
(0.2209543 -0.18115732 7.9059391e-25)
(0.2552195 -0.18759585 3.3520465e-24)
(0.29028329 -0.19269273 -3.2011967e-24)
(0.32594914 -0.19662365 -4.425983e-24)
(0.36205016 -0.19953913 1.8027862e-26)
(0.39844401 -0.20156815 4.0449764e-24)
(0.43500819 -0.2028211 -4.5563299e-25)
(0.4716363 -0.20339263 0)
(0.50823492 -0.20336385 1.9114516e-24)
(0.54472103 -0.20280443 -1.4412997e-24)
(0.58102023 -0.2017744 -3.7201754e-24)
(0.61706522 -0.20032556 2.7568489e-24)
(0.65279476 -0.19850276 5.4531985e-26)
(0.68815296 -0.19634505 -1.5885237e-24)
(0.72308859 -0.19388645 -1.3872177e-24)
(0.75755467 -0.19115675 -1.6496748e-24)
(0.79150812 -0.18818213 7.7697811e-25)
(0.82490929 -0.18498567 2.2511222e-24)
(0.85772179 -0.18158781 1.3393073e-24)
(0.88991215 -0.17800666 -1.0729233e-24)
(0.92144954 -0.17425837 -1.4574148e-24)
(0.95230569 -0.17035735 2.2896297e-24)
(0.98245449 -0.1663165 -1.5843182e-26)
(1.0118719 -0.16214743 -1.1319091e-24)
(1.0405357 -0.15786057 0)
(1.0684254 -0.15346537 0)
(1.0955223 -0.14897041 0)
(1.1218086 -0.14438349 -2.0952917e-24)
(1.1472684 -0.13971172 -1.8924056e-24)
(1.1718866 -0.13496161 2.52434e-38)
(1.1956494 -0.13013915 1.7987888e-24)
(1.218544 -0.12524984 -4.8261285e-25)
(1.2405586 -0.12029876 -1.714596e-24)
(1.2616822 -0.11529062 1.9040208e-38)
(1.2819047 -0.11022981 1.6392114e-24)
(1.3012168 -0.10512038 2.89298e-24)
(1.3196097 -0.099966139 -1.5721222e-24)
(1.3370756 -0.094770641 -3.1476358e-24)
(1.3536071 -0.089537218 4.7191028e-38)
(1.3691975 -0.084269 6.4432454e-38)
(1.3838407 -0.078968933 7.2574216e-39)
(1.397531 -0.073639796 -9.0976929e-39)
(1.4102633 -0.068284218 7.3921636e-38)
(1.422033 -0.062904688 2.7615289e-38)
(1.4328358 -0.057503568 1.28348e-38)
(1.442668 -0.052083109 -1.4416668e-38)
(1.4515262 -0.046645457 3.2884182e-38)
(1.4594074 -0.041192666 2.7271465e-24)
(1.4663091 -0.035726709 7.8258362e-38)
(1.472229 -0.030249486 -2.6846427e-24)
(1.4771652 -0.024762836 1.137287e-38)
(1.4811161 -0.019268546 1.300455e-24)
(1.4840805 -0.013768357 -4.5181934e-26)