/*--------------------------------*- C++ -*----------------------------------*\
  =========                 |
  \\      /  F ield         | OpenFOAM: The Open Source CFD Toolbox
   \\    /   O peration     | Website:  https://openfoam.org
    \\  /    A nd           | Version:  7
     \\/     M anipulation  |
\*---------------------------------------------------------------------------*/
FoamFile
{
    version     2.0;
    format      ascii;
    class       volVectorField;
    location    "0";
    object      Up;
}
// * * * * * * * * * * * * * * * * * * * * * * * * * * * * * * * * * * * * * //

dimensions      [0 1 -1 0 0 0 0];

internalField   nonuniform List<vector> 
31744
(
(-5.6843419e-12 -5.6843419e-12 -2.2376211e-45)
(-51.451707 -25.640042 -1.506593e-19)
(-51.932705 -25.66497 -4.4661118e-19)
(-52.441192 -25.68374 -1.4782203e-19)
(-52.978653 -25.69637 1.5702239e-19)
(-53.546625 -25.702883 -1.5102855e-19)
(-54.146708 -25.703314 -1.5751234e-19)
(-54.780564 -25.697702 -1.4790239e-19)
(-55.44992 -25.686098 -1.478356e-19)
(-56.156574 -25.668558 -1.4773465e-19)
(-56.902397 -25.645145 -1.4759989e-19)
(-57.689341 -25.615929 -1.4743174e-19)
(-58.519442 -25.580987 -1.4723063e-19)
(-59.394827 -25.540401 -1.4699704e-19)
(-60.31772 -25.494259 -1.4673147e-19)
(-61.290448 -25.442653 -1.4643446e-19)
(-62.315449 -25.38568 -1.4610655e-19)
(-63.395285 -25.323441 -1.4574833e-19)
(-64.532643 -25.256039 1.5144544e-19)
(-65.730354 -25.18358 -1.4494337e-19)
(-66.991397 -25.106171 -1.4449785e-19)
(-68.318916 -25.023923 2.4918309e-19)
(-69.716231 -24.936943 -1.4652793e-19)
(-71.186856 -24.84534 -5.5271055e-19)
(-72.734511 -24.749222 -1.4244344e-19)
(-74.363144 -24.648695 2.8613008e-19)
(-76.076945 -24.543859 -1.4421732e-19)
(-77.880379 -24.434814 -4.4823828e-19)
(-79.778195 -24.321653 -1.3998258e-19)
(-81.775461 -24.204464 -0)
(-83.877599 -24.083327 -0)
(-86.090394 -23.958316 -6.3173247e-20)
(-88.42007 -23.829465 -6.5703906e-20)
(-90.87328 -23.696909 -2.4483936e-19)
(-93.457199 -23.560574 -6.4971061e-20)
(-96.179545 -23.420585 3.4002731e-19)
(-99.048645 -23.276852 7.2615747e-20)
(-102.0735 -23.129461 -5.6249211e-23)
(-105.26383 -22.978346 6.9984554e-19)
(-108.63023 -22.823447 -4.5386018e-19)
(-112.18422 -22.66463 -3.3649562e-19)
(-115.93836 -22.501814 2.0013588e-19)
(-119.90642 -22.334995 -1.4735943e-18)
(-124.10352 -22.163799 -6.1517814e-20)
(-128.5463 -21.988134 9.218364e-19)
(-133.25316 -21.80767 4.3027741e-19)
(-138.24455 -21.622141 1.3236386e-19)
(-143.54312 -21.431225 -1.5777812e-19)
(-149.17409 -21.234346 3.5689718e-20)
(-155.1655 -21.031273 -6.2968309e-20)
(-161.54845 -20.821264 8.7387968e-19)
(-168.35735 -20.603695 3.3876966e-21)
(-175.62999 -20.37804 -4.2361711e-19)
(-183.40754 -20.143411 -4.2181082e-20)
(-191.73439 -19.898942 -5.0542821e-19)
(-200.65775 -19.643727 -1.0639186e-18)
(-210.22708 -19.376467 2.9223072e-19)
(-220.4934 -19.096085 2.5861918e-18)
(-231.5085 -18.801027 -7.6698322e-20)
(-243.32449 -18.490068 -1.4917036e-18)
(-255.99465 -18.161741 4.233729e-19)
(-269.57838 -17.813956 9.864659e-20)
(-284.04336 -17.4229 -4.0366022e-19)
(-297.23767 -16.811892 -1.2471985e-19)
(297.2377 -16.811863 -7.2901222e-19)
(284.04336 -17.422742 -9.1391853e-19)
(269.57839 -17.81385 4.3880094e-19)
(255.99467 -18.161845 2.3219272e-19)
(243.32452 -18.490419 -2.7350645e-19)
(231.50853 -18.801466 -1.7845934e-19)
(220.49343 -19.096629 1.1992693e-19)
(210.22711 -19.377192 -1.1864629e-18)
(200.65778 -19.644427 5.6836205e-22)
(191.73443 -19.899636 1.0733756e-18)
(183.40757 -20.14394 6.6198927e-19)
(175.63001 -20.378478 -1.6699838e-21)
(168.35736 -20.604026 -3.7007843e-19)
(161.54846 -20.821422 -7.592604e-21)
(155.16551 -21.031428 6.5727974e-20)
(149.17411 -21.234517 8.0121407e-19)
(143.54313 -21.431252 -3.3641022e-19)
(138.24455 -21.622232 -1.7148263e-18)
(133.25317 -21.807736 1.1629816e-18)
(128.54631 -21.988134 7.2248227e-19)
(124.10352 -22.163799 -6.1697739e-19)
(119.90642 -22.334995 4.8764332e-19)
(115.93836 -22.501814 8.7902445e-19)
(112.18422 -22.66463 -3.5789136e-19)
(108.63023 -22.823447 -1.2073787e-18)
(105.26383 -22.978346 -8.930747e-19)
(102.0735 -23.129461 3.0603792e-19)
(99.048645 -23.276852 8.6686154e-19)
(96.179545 -23.420585 1.4043754e-19)
(93.457199 -23.560574 7.0639003e-20)
(90.87328 -23.696909 3.8376785e-19)
(88.42007 -23.829465 -1.250834e-19)
(86.090394 -23.958316 -7.0809012e-19)
(83.877599 -24.083327 2.5147913e-19)
(81.775461 -24.204464 -0)
(79.778195 -24.321653 -1.3998258e-19)
(77.880379 -24.434814 -0)
(76.076945 -24.543859 -1.4126147e-19)
(74.363144 -24.648695 -1.4186485e-19)
(72.734511 -24.749222 -5.6106483e-19)
(71.186856 -24.84534 -1.4598968e-19)
(69.716231 -24.936943 2.5772591e-19)
(68.318916 -25.023923 -1.4402447e-19)
(66.991397 -25.106171 -5.300649e-19)
(65.730354 -25.18358 -1.4797716e-19)
(64.532643 -25.256039 5.2286121e-19)
(63.395285 -25.323441 -1.4574833e-19)
(62.315449 -25.38568 -1.4610655e-19)
(61.290448 -25.442653 -1.4643446e-19)
(60.31772 -25.494259 -1.4673147e-19)
(59.394827 -25.540401 -1.4699704e-19)
(58.519442 -25.580987 -1.4723063e-19)
(57.689341 -25.615929 -1.4743174e-19)
(56.902397 -25.645145 -1.4759989e-19)
(56.156574 -25.668558 -1.4773465e-19)
(55.44992 -25.686098 -1.478356e-19)
(54.780564 -25.697702 -1.4790239e-19)
(54.146708 -25.703314 1.5412748e-19)
(53.546625 -25.702883 -1.479322e-19)
(52.978653 -25.69637 -1.4789472e-19)
(52.441192 -25.68374 -4.496458e-19)
(51.932705 -25.66497 -1.5080578e-19)
(51.451707 -25.640042 1.4855829e-19)
(-0 0 0)
(-25.640042 -51.451707 1.506593e-19)
(-51.507728 -51.507728 -1.1002541e-32)
(-51.976403 -51.550905 -2.9914869e-19)
(-52.472592 -51.581243 6.6878551e-33)
(-52.997795 -51.598761 3.0502729e-19)
(-53.553569 -51.603496 6.2935492e-19)
(-54.141528 -51.595501 -3.1161001e-19)
(-54.763349 -51.574846 -6.435721e-19)
(-55.420776 -51.541612 -7.1893528e-33)
(-56.11562 -51.495899 1.8201432e-32)
(-56.849767 -51.437816 1.0003553e-32)
(-57.625183 -51.367488 8.8476269e-33)
(-58.443914 -51.28505 -9.5675052e-34)
(-59.308099 -51.190646 -9.9392804e-34)
(-60.219972 -51.084432 -2.026977e-33)
(-61.181869 -50.966569 1.9837746e-32)
(-62.196237 -50.837229 5.2822625e-33)
(-63.265644 -50.696584 7.4349002e-19)
(-64.392782 -50.544815 -1.0487297e-32)
(-65.580487 -50.382101 -7.7069377e-19)
(-66.83174 -50.208625 9.9567506e-33)
(-68.149687 -50.024568 3.9223356e-19)
(-69.537649 -49.830108 -2.5779177e-32)
(-70.999136 -49.625417 -4.0863348e-19)
(-72.537866 -49.410663 2.9957943e-33)
(-74.15778 -49.186003 4.2681297e-19)
(-75.863065 -48.951584 4.3662769e-19)
(-77.658174 -48.707539 -4.4695938e-19)
(-79.547845 -48.453985 1.5455956e-32)
(-81.537135 -48.191022 4.6928464e-19)
(-83.63145 -47.918724 -4.8133365e-19)
(-85.836564 -47.637146 1.8032536e-19)
(-88.158669 -47.346308 8.1253603e-19)
(-90.604409 -47.046207 2.6115166e-19)
(-93.180932 -46.736795 -4.5229185e-19)
(-95.895916 -46.417986 -2.4463768e-23)
(-98.757666 -46.08965 4.5395772e-19)
(-101.77514 -45.751605 5.6837134e-19)
(-104.95804 -45.40361 1.5317526e-19)
(-108.31692 -45.045358 -6.0555351e-19)
(-111.86324 -44.676472 1.6070313e-19)
(-115.60953 -44.296483 -7.970224e-19)
(-119.56949 -43.904836 -5.5583963e-19)
(-123.75815 -43.500867 3.5181886e-19)
(-128.19213 -43.083785 2.3302191e-19)
(-132.88972 -42.652669 1.1905681e-18)
(-137.87125 -42.20644 -9.2347947e-19)
(-143.15927 -41.743853 -3.1341943e-19)
(-148.77884 -41.263446 4.0905346e-19)
(-154.75783 -40.76357 -1.1281395e-20)
(-161.12716 -40.242323 7.1886043e-19)
(-167.92101 -39.697546 2.5356308e-19)
(-175.1769 -39.126799 1.197828e-19)
(-182.93581 -38.527317 -6.5256474e-19)
(-191.24191 -37.896007 4.5067957e-19)
(-200.14235 -37.229388 1.1653702e-18)
(-209.68679 -36.523524 -5.0102921e-19)
(-219.92688 -35.773983 -1.2880938e-18)
(-230.91589 -34.975631 -2.2369397e-19)
(-242.70899 -34.122486 -2.3095731e-19)
(-255.3653 -33.207411 1.7782249e-18)
(-268.95506 -32.221757 -5.3687314e-19)
(-283.55067 -31.12849 -3.6234689e-18)
(-297.35978 -30.098985 -1.1607832e-18)
(297.35976 -30.098978 -1.3786237e-18)
(283.5507 -31.128494 -1.8463057e-18)
(268.95509 -32.221757 -1.6036227e-18)
(255.36531 -33.207407 -7.1009859e-19)
(242.70902 -34.122506 1.6105977e-18)
(230.91594 -34.975632 6.7328853e-19)
(219.92694 -35.773985 5.7845688e-19)
(209.68684 -36.523523 -1.6689222e-19)
(200.1424 -37.229384 -8.0106533e-19)
(191.24195 -37.896007 -4.9772312e-19)
(182.93584 -38.527315 1.094435e-20)
(175.17692 -39.126795 -4.0025256e-19)
(167.92102 -39.697545 3.4281383e-21)
(161.12718 -40.242319 9.4815152e-19)
(154.75785 -40.763569 8.816226e-19)
(148.77885 -41.263447 1.2158554e-19)
(143.15927 -41.743849 -5.5524747e-19)
(137.87126 -42.206442 1.2659302e-19)
(132.88973 -42.652668 -3.4142643e-19)
(128.19213 -43.083785 4.1835276e-19)
(123.75815 -43.500867 -7.514549e-19)
(119.56948 -43.904836 7.4483584e-20)
(115.60953 -44.296483 7.5866334e-19)
(111.86324 -44.676472 3.9107393e-19)
(108.31692 -45.045358 3.3989215e-19)
(104.95804 -45.40361 1.6136668e-19)
(101.77514 -45.751605 -7.1656524e-19)
(98.757666 -46.08965 -4.5395715e-19)
(95.895916 -46.417986 -5.5463447e-19)
(93.180932 -46.736795 8.1563054e-19)
(90.604409 -47.046207 1.4191322e-19)
(88.158669 -47.346308 5.4822674e-19)
(85.836564 -47.637146 -1.4282897e-19)
(83.63145 -47.918724 -4.8133365e-19)
(81.537135 -48.191022 4.6928464e-19)
(79.547845 -48.453985 1.2413475e-32)
(77.658174 -48.707539 4.6313503e-33)
(75.863065 -48.951584 4.3662682e-19)
(74.15778 -49.186003 9.4311675e-33)
(72.537866 -49.410663 -4.174896e-19)
(70.999136 -49.625417 1.7328351e-32)
(69.537649 -49.830108 4.0022194e-19)
(68.149687 -50.024568 1.8964819e-32)
(66.83174 -50.208625 -3.8464816e-19)
(65.580487 -50.382101 -7.7069377e-19)
(64.392782 -50.544815 3.7061081e-19)
(63.265644 -50.696584 7.4349002e-19)
(62.196237 -50.837229 5.7614049e-33)
(61.181869 -50.966569 -1.0587919e-32)
(60.219972 -51.084432 2.7004361e-32)
(59.308099 -51.190646 2.1631163e-33)
(58.443914 -51.28505 -1.3507066e-33)
(57.625183 -51.367488 -1.9769088e-33)
(56.849767 -51.437816 -8.5617881e-33)
(56.11562 -51.495899 7.8135689e-33)
(55.420776 -51.541612 -6.9225115e-33)
(54.763349 -51.574846 -6.435721e-19)
(54.141528 -51.595501 1.3295014e-32)
(53.553569 -51.603496 6.2935492e-19)
(52.997795 -51.598761 -7.1205237e-33)
(52.472592 -51.581243 -3.0200449e-19)
(51.976403 -51.550905 -1.394782e-32)
(51.507728 -51.507728 3.0265622e-19)
(25.640042 -51.451707 -1.1854477e-33)
(-25.66497 -51.932705 4.4661118e-19)
(-51.550905 -51.976403 2.9914869e-19)
(-52.00622 -52.00622 5.7055675e-33)
(-52.489048 -52.022135 2.994119e-19)
(-53.000906 -52.024142 6.0446864e-19)
(-53.543366 -52.012254 2.9935503e-19)
(-54.118058 -51.986497 -6.2320702e-19)
(-54.726675 -51.946913 2.9897896e-19)
(-55.370973 -51.893556 2.9867187e-19)
(-56.052778 -51.826494 2.982859e-19)
(-56.773986 -51.745808 2.9782151e-19)
(-57.536574 -51.651586 2.9727922e-19)
(-58.3426 -51.54393 2.966596e-19)
(-59.194209 -51.422945 2.9596328e-19)
(-60.093643 -51.288747 2.9519091e-19)
(-61.043245 -51.141453 2.9434316e-19)
(-62.045464 -50.981186 2.9342075e-19)
(-63.102871 -50.80807 2.9242438e-19)
(-64.21816 -50.622226 -3.0355137e-19)
(-65.394165 -50.423776 2.9021259e-19)
(-66.633864 -50.212833 2.8899852e-19)
(-67.940398 -49.989508 6.7874218e-19)
(-69.31708 -49.753898 2.8635713e-19)
(-70.767412 -49.50609 -1.2236893e-19)
(-72.295097 -49.246155 2.8343483e-19)
(-73.904065 -48.974146 7.0722201e-19)
(-75.598482 -48.690097 2.8023532e-19)
(-77.382781 -48.394014 -4.4537437e-19)
(-79.261678 -48.085877 2.7675688e-19)
(-81.240201 -47.765632 -0)
(-83.323724 -47.433191 7.2938172e-19)
(-85.517987 -47.088419 7.8381071e-19)
(-87.829142 -46.731144 -8.8776246e-19)
(-90.263793 -46.361131 -5.5241778e-19)
(-92.829022 -45.978092 -2.869902e-19)
(-95.532472 -45.581673 2.7332506e-19)
(-98.382367 -45.171444 2.9525945e-19)
(-101.38761 -44.746893 -1.3410546e-19)
(-104.55781 -44.30742 -8.9252803e-19)
(-107.90343 -43.852308 -1.2091458e-19)
(-111.43585 -43.38074 1.6386693e-20)
(-115.16746 -42.891748 1.2860095e-19)
(-119.11185 -42.384221 2.4393274e-19)
(-123.28394 -41.856886 -5.9198226e-19)
(-127.70014 -41.30826 2.4691003e-19)
(-132.37862 -40.736647 3.648667e-19)
(-137.33951 -40.140114 6.0603806e-19)
(-142.60518 -39.516426 6.5349739e-19)
(-148.2005 -38.863045 -1.8149243e-19)
(-154.15321 -38.177077 8.0440246e-19)
(-160.49407 -37.455232 7.7809279e-20)
(-167.25718 -36.693773 -3.8630842e-19)
(-174.48019 -35.888479 -6.4870374e-20)
(-182.20427 -35.034587 -9.5736831e-19)
(-190.4742 -34.126718 6.8926018e-21)
(-199.33818 -33.158812 -3.0552163e-19)
(-208.84766 -32.124015 -2.0111217e-19)
(-219.05722 -31.014511 6.343906e-19)
(-230.02475 -29.821285 -1.4427981e-18)
(-241.81219 -28.533781 1.4318765e-18)
(-254.48743 -27.139309 1.4703e-18)
(-268.12815 -25.622468 -1.7760215e-18)
(-282.80303 -23.920469 -1.7682929e-18)
(-296.70581 -22.221994 -1.097127e-18)
(296.70581 -22.221996 -1.1623876e-18)
(282.80303 -23.920462 -2.4861534e-18)
(268.12817 -25.622469 -4.9501812e-19)
(254.48744 -27.139311 -7.4976754e-19)
(241.81221 -28.533781 1.0119118e-19)
(230.0248 -29.821292 6.800193e-19)
(219.05725 -31.014506 1.2652346e-18)
(208.84768 -32.124009 1.006202e-19)
(199.33821 -33.158815 -1.8378675e-18)
(190.47423 -34.126714 -1.479351e-19)
(182.20429 -35.034584 3.7234927e-19)
(174.48021 -35.88848 2.4941286e-19)
(167.2572 -36.693769 -3.226275e-19)
(160.49407 -37.455228 -0)
(154.15322 -38.177076 -4.5750855e-19)
(148.20052 -38.863044 1.0842834e-19)
(142.60518 -39.516425 -5.1112318e-19)
(137.33951 -40.140112 6.4253534e-19)
(132.37862 -40.736649 3.6126141e-19)
(127.70014 -41.30826 -3.4015896e-19)
(123.28394 -41.856887 2.5042637e-19)
(119.11185 -42.38422 -3.605623e-19)
(115.16746 -42.891748 3.3443156e-19)
(111.43585 -43.38074 -2.6833707e-20)
(107.90343 -43.852308 -5.2592833e-19)
(104.55781 -44.30742 2.5276292e-20)
(101.38761 -44.746893 1.6967617e-19)
(98.382367 -45.171444 5.425103e-19)
(95.532472 -45.581673 1.4970775e-19)
(92.829022 -45.978092 -2.5829357e-21)
(90.263793 -46.361131 9.4909195e-20)
(87.829142 -46.731144 -2.4216109e-19)
(85.517987 -47.088419 1.5043868e-19)
(83.323724 -47.433191 -0)
(81.240201 -47.765632 -0)
(79.261678 -48.085877 2.7675688e-19)
(77.382781 -48.394014 -0)
(75.598482 -48.690097 2.8023445e-19)
(73.904065 -48.974146 2.8186929e-19)
(72.295097 -49.246155 -1.3265753e-19)
(70.767412 -49.50609 2.8493088e-19)
(69.31708 -49.753898 6.8530959e-19)
(67.940398 -49.989508 2.8771318e-19)
(66.633864 -50.212833 -9.4510769e-20)
(65.394165 -50.423776 2.9021259e-19)
(64.21816 -50.622226 6.6054402e-20)
(63.102871 -50.80807 2.9242438e-19)
(62.045464 -50.981186 2.9342075e-19)
(61.043245 -51.141453 2.9434316e-19)
(60.093643 -51.288747 2.9519091e-19)
(59.194209 -51.422945 2.9596328e-19)
(58.3426 -51.54393 2.966596e-19)
(57.536574 -51.651586 2.9727922e-19)
(56.773986 -51.745808 2.9782151e-19)
(56.052778 -51.826494 2.982859e-19)
(55.370973 -51.893556 2.9867187e-19)
(54.726675 -51.946913 2.9897896e-19)
(54.118058 -51.986497 -3.1173209e-19)
(53.543366 -52.012254 2.9935503e-19)
(53.000906 -52.024142 2.9942345e-19)
(52.489048 -52.022135 -2.6873062e-21)
(52.00622 -52.00622 2.993203e-19)
(51.550905 -51.976403 5.9584844e-19)
(25.66497 -51.932705 3.0515336e-19)
(-25.68374 -52.441192 1.4782203e-19)
(-51.581243 -52.472592 -4.1804492e-33)
(-52.022135 -52.489048 -2.994119e-19)
(-52.490514 -52.490514 -0)
(-52.987915 -52.476962 3.0497042e-19)
(-53.515924 -52.448379 -4.8064614e-33)
(-54.076186 -52.404765 -3.1123393e-19)
(-54.670408 -52.346135 -0)
(-55.300357 -52.272517 -0)
(-55.967872 -52.18395 -0)
(-56.67486 -52.080483 -0)
(-57.423305 -51.962176 -0)
(-58.215273 -51.829092 -0)
(-59.052916 -51.681303 -0)
(-59.93848 -51.518884 -0)
(-60.874309 -51.341912 -0)
(-61.862854 -51.150462 -0)
(-62.906683 -50.944609 -0)
(-64.008488 -50.724421 -0)
(-65.171094 -50.48996 -0)
(-66.397472 -50.241276 -0)
(-67.690752 -49.978409 3.8959217e-19)
(-69.054231 -49.701379 -2.2039668e-32)
(-70.491393 -49.410188 -4.0571118e-19)
(-72.005922 -49.104817 -0)
(-73.601723 -48.785216 4.236126e-19)
(-75.282933 -48.451307 8.6657617e-25)
(-77.053954 -48.102975 -5.8770437e-19)
(-78.919464 -47.740064 -0)
(-80.88445 -47.362374 -0)
(-82.954238 -46.969652 -0)
(-85.134518 -46.561587 -8.9756654e-19)
(-87.431383 -46.137807 -2.7666526e-19)
(-89.851362 -45.697862 2.5201783e-19)
(-92.401479 -45.241223 1.3562956e-19)
(-95.08928 -44.767276 -2.2868856e-20)
(-97.922907 -44.275296 -2.9357411e-19)
(-100.91115 -43.764453 -8.0559337e-20)
(-104.06351 -43.233786 4.4152339e-19)
(-107.39033 -42.682193 3.0630468e-19)
(-110.90282 -42.108412 5.279478e-19)
(-114.61323 -41.510995 2.7898144e-20)
(-118.53496 -40.888293 -9.4538623e-19)
(-122.68272 -40.238427 -2.315889e-19)
(-127.07272 -39.559244 2.3722994e-19)
(-131.72288 -38.848301 1.1464337e-18)
(-136.65305 -38.102805 1.1450864e-20)
(-141.88533 -37.319581 -4.1739399e-19)
(-147.44433 -36.495027 -8.3509095e-19)
(-153.35745 -35.625024 -5.310614e-19)
(-159.65523 -34.704917 9.6012318e-19)
(-166.37158 -33.729419 -3.7859762e-19)
(-173.54403 -32.692541 -3.0036764e-19)
(-181.2139 -31.587524 4.5215508e-20)
(-189.42633 -30.406721 -1.5546116e-18)
(-198.23037 -29.141471 -1.4110582e-19)
(-207.67905 -27.781958 1.1207101e-18)
(-217.82951 -26.316946 -7.1307439e-19)
(-228.74366 -24.733478 8.2878054e-20)
(-240.48923 -23.016287 8.5947732e-19)
(-253.14129 -21.147086 1.2934681e-19)
(-266.78318 -19.103646 7.8083182e-19)
(-281.49015 -16.77936 1.3621364e-18)
(-295.18468 -14.51416 4.7716769e-19)
(295.18468 -14.51416 1.6005668e-18)
(281.49015 -16.77936 1.2268159e-18)
(266.78319 -19.103644 -2.2607169e-18)
(253.1413 -21.147084 -6.7165935e-19)
(240.48924 -23.016284 1.4162484e-18)
(228.74368 -24.733474 -5.1679234e-20)
(217.82954 -26.31695 9.5207277e-22)
(207.67907 -27.781952 2.143002e-18)
(198.2304 -29.141471 5.7093015e-19)
(189.42636 -30.40672 -1.1393885e-18)
(181.21392 -31.58752 -1.5434153e-18)
(173.54405 -32.692541 7.2012477e-19)
(166.37159 -33.729419 1.03404e-18)
(159.65524 -34.704913 -4.3115708e-19)
(153.35746 -35.625023 4.5509436e-19)
(147.44433 -36.495026 2.1829843e-19)
(141.88534 -37.319583 -1.2339389e-18)
(136.65306 -38.102803 -6.2447205e-19)
(131.72288 -38.848301 8.7023455e-19)
(127.07272 -39.559244 -7.2976011e-19)
(122.68272 -40.238426 1.0673437e-19)
(118.53496 -40.888294 5.4811391e-19)
(114.61323 -41.510995 -3.3313534e-19)
(110.90282 -42.108412 -3.3234955e-19)
(107.39033 -42.682193 3.5809969e-19)
(104.06351 -43.233786 4.9414212e-19)
(100.91115 -43.764453 -1.6073379e-19)
(97.922907 -44.275296 -7.1985531e-19)
(95.08928 -44.767276 -5.9758257e-19)
(92.401479 -45.241223 4.3494405e-19)
(89.851362 -45.697862 9.4515119e-19)
(87.431383 -46.137807 2.4106891e-19)
(85.134518 -46.561587 -1.6710771e-24)
(82.954238 -46.969652 -2.4871074e-19)
(80.88445 -47.362374 -0)
(78.919464 -47.740064 -0)
(77.053954 -48.102975 -1.4422255e-19)
(75.282933 -48.451307 -0)
(73.601723 -48.785216 -0)
(72.005922 -49.104817 -4.1442802e-19)
(70.491393 -49.410188 -1.3486025e-33)
(69.054231 -49.701379 3.9743964e-19)
(67.690752 -49.978409 -0)
(66.397472 -50.241276 -3.8214874e-19)
(65.171094 -50.48996 -1.4806718e-32)
(64.008488 -50.724421 3.6839901e-19)
(62.906683 -50.944609 -0)
(61.862854 -51.150462 -0)
(60.874309 -51.341912 -0)
(59.93848 -51.518884 -0)
(59.052916 -51.681303 -0)
(58.215273 -51.829092 -0)
(57.423305 -51.962176 -0)
(56.67486 -52.080483 -0)
(55.967872 -52.18395 -0)
(55.300357 -52.272517 -0)
(54.670408 -52.346135 -0)
(54.076186 -52.404765 -0)
(53.515924 -52.448379 -0)
(52.987915 -52.476962 -0)
(52.490514 -52.490514 -3.0210765e-19)
(52.022135 -52.489048 -1.117385e-32)
(51.581243 -52.472592 2.9687436e-19)
(25.68374 -52.441192 -0)
(-25.69637 -52.978653 -1.5702239e-19)
(-51.598761 -52.997795 -3.0502729e-19)
(-52.024142 -53.000906 -6.0446864e-19)
(-52.476962 -52.987915 -3.0497042e-19)
(-52.95877 -52.95877 -4.9833437e-33)
(-53.471168 -52.913434 -3.0454175e-19)
(-54.015814 -52.851883 6.0348338e-21)
(-54.594427 -52.774106 -3.0373985e-19)
(-55.208789 -52.680106 -3.0319883e-19)
(-55.860744 -52.569892 -3.025645e-19)
(-56.552212 -52.443487 -3.0183698e-19)
(-57.285183 -52.300917 -3.0101642e-19)
(-58.061728 -52.142216 -3.0010303e-19)
(-58.884002 -51.96742 -2.9909699e-19)
(-59.754252 -51.776566 -2.9799854e-19)
(-60.674822 -51.569692 -2.9680788e-19)
(-61.648161 -51.346828 -2.9552519e-19)
(-62.67683 -51.108003 -2.9415064e-19)
(-63.763511 -50.853233 3.0493659e-19)
(-64.91102 -50.582524 -2.9112626e-19)
(-66.122313 -50.295865 -2.894764e-19)
(-67.4005 -49.993226 1.0018707e-19)
(-68.74886 -49.674556 -2.8590048e-19)
(-70.17085 -49.339776 -6.8783997e-19)
(-71.670125 -48.988775 -2.8195349e-19)
(-73.250555 -48.621408 1.4175235e-19)
(-74.916241 -48.237488 -5.0224261e-19)
(-76.671538 -47.836783 -7.1660424e-19)
(-78.521077 -47.419005 2.354217e-19)
(-80.46979 -46.983813 -0)
(-82.522939 -46.530795 -0)
(-84.686144 -46.059468 -1.109733e-20)
(-86.965421 -45.569266 7.627862e-19)
(-89.367215 -45.059532 2.6793626e-19)
(-91.898447 -44.529507 -4.1684748e-19)
(-94.566564 -43.978314 -4.1537263e-19)
(-97.379575 -43.404953 -3.1638952e-20)
(-100.34614 -42.808279 3.0074532e-19)
(-103.47563 -42.186988 3.102257e-19)
(-106.77819 -41.5396 -6.6570011e-19)
(-110.26486 -40.864422 9.743124e-21)
(-113.94766 -40.159546 -7.6762584e-19)
(-117.83979 -39.422799 -5.5898932e-19)
(-121.95567 -38.651713 7.2961228e-19)
(-126.31121 -37.843498 8.3890213e-19)
(-130.92403 -36.994975 -1.7742615e-19)
(-135.81362 -36.102537 -2.1004312e-20)
(-141.00171 -35.162098 5.9838821e-19)
(-146.51248 -34.168999 -1.0662022e-18)
(-152.37295 -33.117959 -7.0927429e-19)
(-158.61322 -32.003001 1.0193906e-18)
(-165.26683 -30.817305 9.5250085e-20)
(-172.37101 -29.553173 -7.7169642e-19)
(-179.96691 -28.201893 9.6597941e-19)
(-188.09968 -26.753566 -3.8579001e-19)
(-196.81873 -25.197003 -9.3129685e-19)
(-206.17787 -23.519469 -2.3458214e-21)
(-216.23572 -21.706411 1.8067944e-18)
(-227.05652 -19.741103 7.8769226e-19)
(-238.71149 -17.603915 1.3095239e-18)
(-251.28049 -15.271657 -9.9232433e-20)
(-264.85176 -12.716456 -1.4484179e-18)
(-279.52698 -9.765957 -2.4863448e-19)
(-292.86125 -7.0361228 -9.6706478e-19)
(292.86125 -7.0361228 -6.7624357e-20)
(279.52698 -9.7659576 1.4739868e-19)
(264.85177 -12.716448 -4.5376726e-21)
(251.28051 -15.271665 -1.6164206e-18)
(238.71149 -17.603916 1.2068504e-19)
(227.05654 -19.741095 1.2978088e-18)
(216.23573 -21.706411 -1.4336943e-18)
(206.17789 -23.519466 5.8561803e-21)
(196.81875 -25.196996 1.2883597e-18)
(188.09969 -26.753563 -5.0778821e-20)
(179.96692 -28.201889 -1.5277883e-18)
(172.37102 -29.553178 -6.2914586e-19)
(165.26684 -30.817307 1.4981239e-18)
(158.61323 -32.002998 2.8122289e-19)
(152.37295 -33.11796 4.5212496e-19)
(146.51249 -34.168998 1.0124435e-19)
(141.00171 -35.162094 -3.1299159e-19)
(135.81363 -36.102539 -2.0782609e-19)
(130.92403 -36.994975 -1.7842157e-19)
(126.31121 -37.843498 6.4275598e-19)
(121.95566 -38.651713 1.7086275e-19)
(117.83979 -39.422799 -5.9646355e-19)
(113.94766 -40.159546 -2.7431956e-20)
(110.26486 -40.864422 -1.589273e-19)
(106.77819 -41.5396 -5.5912162e-19)
(103.47563 -42.186988 -4.0153707e-19)
(100.34614 -42.808279 4.2914689e-19)
(97.379575 -43.404953 2.8145328e-19)
(94.566564 -43.978314 -2.8351685e-19)
(91.898447 -44.529507 -5.4543785e-19)
(89.367215 -45.059532 2.5725511e-19)
(86.965421 -45.569266 1.575788e-19)
(84.686144 -46.059468 1.5849914e-19)
(82.522939 -46.530795 -0)
(80.46979 -46.983813 -0)
(78.521077 -47.419005 2.354217e-19)
(76.671538 -47.836783 -4.4501213e-25)
(74.916241 -48.237488 -5.0224309e-19)
(73.250555 -48.621408 -2.7983912e-19)
(71.670125 -48.988775 -6.9444883e-19)
(70.17085 -49.339776 -2.8397366e-19)
(68.74886 -49.674556 1.0978161e-19)
(67.4005 -49.993226 -2.8773457e-19)
(66.122313 -50.295865 -6.7004147e-19)
(64.91102 -50.582524 -2.9112626e-19)
(63.763511 -50.853233 6.7192564e-19)
(62.67683 -51.108003 -2.9415064e-19)
(61.648161 -51.346828 -2.9552519e-19)
(60.674822 -51.569692 -2.9680788e-19)
(59.754252 -51.776566 -2.9799854e-19)
(58.884002 -51.96742 -2.9909699e-19)
(58.061728 -52.142216 -3.0010303e-19)
(57.285183 -52.300917 -3.0101642e-19)
(56.552212 -52.443487 -3.0183698e-19)
(55.860744 -52.569892 -3.025645e-19)
(55.208789 -52.680106 -3.0319883e-19)
(54.594427 -52.774106 -3.0373985e-19)
(54.015814 -52.851883 3.169213e-19)
(53.471168 -52.913434 -3.0454175e-19)
(52.95877 -52.95877 -3.0480268e-19)
(52.476962 -52.987915 -6.0700007e-19)
(52.024142 -53.000906 -3.0504519e-19)
(51.598761 -52.997795 -8.0521034e-21)
(25.69637 -52.978653 -3.1129929e-19)
(-25.702883 -53.546625 1.5102855e-19)
(-51.603496 -53.553569 -6.2935492e-19)
(-52.012254 -53.543366 -2.9935503e-19)
(-52.448379 -53.515924 5.9073473e-33)
(-52.913434 -53.471168 3.0454175e-19)
(-53.409037 -53.409037 -8.9555742e-33)
(-53.936859 -53.329483 -3.1043204e-19)
(-54.49863 -53.232473 -6.4046116e-19)
(-55.096143 -53.117981 9.9071878e-33)
(-55.731253 -52.985995 1.498837e-32)
(-56.405885 -52.836507 4.2686777e-33)
(-57.122034 -52.669515 1.5088501e-32)
(-57.881776 -52.485024 1.381781e-33)
(-58.687267 -52.283035 1.3412684e-32)
(-59.540752 -52.063552 5.2681398e-33)
(-60.444571 -51.826573 3.1455041e-33)
(-61.401166 -51.572089 1.8447653e-32)
(-62.413088 -51.300084 7.3347089e-19)
(-63.483009 -51.010524 -1.6548186e-32)
(-64.613725 -50.703362 -7.5933251e-19)
(-65.808175 -50.37853 2.3393244e-33)
(-67.069443 -50.035933 3.8601625e-19)
(-68.40078 -49.67545 -5.8377975e-19)
(-69.805612 -49.296924 -4.0176419e-19)
(-71.287555 -48.900161 1.1078803e-32)
(-72.850436 -48.48492 4.1928859e-19)
(-74.498308 -48.050912 -5.6468838e-19)
(-76.23547 -47.597792 1.4270696e-19)
(-78.066493 -47.125147 4.4930946e-19)
(-79.996241 -46.632498 -1.3981376e-19)
(-82.029896 -46.119283 -2.9631305e-19)
(-84.17299 -45.584853 -1.0983134e-20)
(-86.431452 -45.028457 2.0824126e-20)
(-88.81161 -44.449237 -5.4348774e-19)
(-91.320275 -43.846208 -4.0524384e-19)
(-93.964747 -43.218253 1.64352e-19)
(-96.752909 -42.564097 3.0204873e-23)
(-99.693246 -41.882298 -2.9884439e-19)
(-102.79493 -41.171221 -6.2212937e-20)
(-106.06792 -40.429017 3.2766627e-19)
(-109.52302 -39.653595 -5.3722214e-19)
(-113.17201 -38.842593 2.2208633e-19)
(-117.02777 -37.993339 9.1992277e-19)
(-121.10441 -37.102811 -9.4835803e-21)
(-125.4175 -36.167598 7.1049959e-19)
(-129.98422 -35.183827 -6.6943849e-19)
(-134.82366 -34.147107 1.2295379e-19)
(-139.95703 -33.052479 3.2013862e-19)
(-145.40801 -31.894287 -9.6074747e-19)
(-151.20306 -30.666138 9.4738502e-19)
(-157.3717 -29.360752 9.7875208e-19)
(-163.94687 -27.969891 -2.2363313e-18)
(-170.96524 -26.484198 -8.1069316e-19)
(-178.46739 -24.893056 2.4779037e-18)
(-186.49801 -23.184448 -1.285537e-19)
(-195.1061 -21.344763 -1.0612651e-18)
(-204.3452 -19.358474 1.7854723e-19)
(-214.27379 -17.207993 7.2134014e-19)
(-224.95592 -14.873249 -4.3202404e-20)
(-236.46268 -12.330943 -1.9581475e-18)
(-248.87421 -9.5543864 -1.7271142e-19)
(-262.28009 -6.512552 2.1967085e-18)
(-276.83017 -2.9480464 -7.6189656e-19)
(-289.90929 0.19379155 -1.3595213e-18)
(289.90929 0.19379168 -1.0423389e-18)
(276.83017 -2.9480454 4.4083776e-19)
(262.28009 -6.5125498 2.1716839e-18)
(248.8742 -9.5543901 -8.099476e-19)
(236.46269 -12.330945 -8.0130303e-19)
(224.95593 -14.873244 1.2842286e-18)
(214.2738 -17.207991 -1.0942614e-19)
(204.34521 -19.358476 -7.0626754e-19)
(195.10612 -21.344757 4.7850944e-19)
(186.49802 -23.184447 6.687889e-20)
(178.46739 -24.893051 -4.8903193e-19)
(170.96524 -26.484199 -3.8689692e-19)
(163.94688 -27.969889 9.2689435e-19)
(157.3717 -29.360753 -3.9898889e-21)
(151.20307 -30.666136 -8.5528937e-19)
(145.40802 -31.894288 -8.7887048e-20)
(139.95704 -33.052478 -0)
(134.82366 -34.147108 -1.173921e-18)
(129.98422 -35.183825 4.8666601e-19)
(125.4175 -36.167598 6.0993594e-19)
(121.10441 -37.102811 -2.8306556e-20)
(117.02777 -37.993339 1.8319063e-20)
(113.17201 -38.842593 3.2972733e-19)
(109.52302 -39.653595 3.0175224e-19)
(106.06792 -40.429016 1.6147363e-19)
(102.79493 -41.171221 -5.2034553e-19)
(99.693246 -41.882298 -6.7517338e-19)
(96.752909 -42.564097 -2.7981e-19)
(93.964747 -43.218253 2.3644896e-19)
(91.320275 -43.846208 1.4231352e-19)
(88.81161 -44.449237 -5.2184787e-19)
(86.431452 -45.028457 -1.0847372e-20)
(84.17299 -45.584853 2.5236331e-19)
(82.029896 -46.119283 -0)
(79.996241 -46.632498 -0)
(78.066493 -47.125147 -0)
(76.23547 -47.597792 2.9606295e-19)
(74.498308 -48.050912 4.2877287e-19)
(72.850436 -48.48492 9.2786575e-33)
(71.287555 -48.900161 -4.1029347e-19)
(69.805612 -49.296924 -5.7933136e-19)
(68.40078 -49.67545 3.9367872e-19)
(67.069443 -50.035933 3.0071408e-33)
(65.808175 -50.37853 -3.7875706e-19)
(64.613725 -50.703362 -1.3551921e-18)
(63.483009 -51.010524 3.6537463e-19)
(62.413088 -51.300084 7.3347089e-19)
(61.401166 -51.572089 1.1132904e-32)
(60.444571 -51.826573 -7.61637e-33)
(59.540752 -52.063552 1.2970948e-32)
(58.687267 -52.283035 2.4227807e-32)
(57.881776 -52.485024 -2.7626865e-33)
(57.122034 -52.669515 1.5308527e-32)
(56.405885 -52.836507 4.319043e-33)
(55.731253 -52.985995 2.5151289e-32)
(55.096143 -53.117981 6.6519015e-33)
(54.49863 -53.232473 -6.4046116e-19)
(53.936859 -53.329483 3.6949714e-33)
(53.409037 -53.409037 6.2765639e-19)
(52.913434 -53.471168 4.312394e-33)
(52.448379 -53.515924 -3.0186514e-19)
(52.012254 -53.543366 -6.2923501e-19)
(51.603496 -53.553569 3.0321895e-19)
(25.702883 -53.546625 6.532244e-33)
(-25.703314 -54.146708 1.5751234e-19)
(-51.595501 -54.141528 3.1161001e-19)
(-51.986497 -54.118058 6.2320702e-19)
(-52.404765 -54.076186 3.1123393e-19)
(-52.851883 -54.015814 -6.0348338e-21)
(-53.329483 -53.936859 3.1043204e-19)
(-53.83925 -53.83925 -6.6685324e-33)
(-54.382926 -53.722931 3.0920078e-19)
(-54.962311 -53.587854 3.0842335e-19)
(-55.57927 -53.433981 3.0753774e-19)
(-56.235733 -53.261278 3.0654376e-19)
(-56.9337 -53.06972 3.0544124e-19)
(-57.675247 -52.859278 3.0423006e-19)
(-58.46253 -52.629928 3.0291003e-19)
(-59.29779 -52.381637 3.0148101e-19)
(-60.18336 -52.114371 2.9994276e-19)
(-61.121672 -51.828082 2.9829504e-19)
(-62.115264 -51.522711 2.9653748e-19)
(-63.16679 -51.19818 -3.0700503e-19)
(-64.279026 -50.854392 2.9269099e-19)
(-65.454884 -50.491223 2.9060078e-19)
(-66.697421 -50.10852 -1.1154661e-19)
(-68.009851 -49.706093 2.8608199e-19)
(-69.39556 -49.283715 6.9977489e-19)
(-70.858121 -48.841109 2.811036e-19)
(-72.401307 -48.377948 -1.5570967e-19)
(-74.029112 -47.893844 2.7565164e-19)