/*--------------------------------*- C++ -*----------------------------------*\
  =========                 |
  \\      /  F ield         | OpenFOAM: The Open Source CFD Toolbox
   \\    /   O peration     | Website:  https://openfoam.org
    \\  /    A nd           | Version:  7
     \\/     M anipulation  |
\*---------------------------------------------------------------------------*/
FoamFile
{
    version     2.0;
    format      ascii;
    class       volVectorField;
    location    "0";
    object      Upot;
}
// * * * * * * * * * * * * * * * * * * * * * * * * * * * * * * * * * * * * * //

dimensions      [0 1 -1 0 0 0 0];

internalField   nonuniform List<vector> 
31744
(
(0 0 -0)
(-0.51451707 -0.25640042 -1.506593e-21)
(-0.51932705 -0.2566497 -4.4661118e-21)
(-0.52441192 -0.2568374 -1.4782203e-21)
(-0.52978653 -0.2569637 1.5702239e-21)
(-0.53546625 -0.25702883 -1.5102855e-21)
(-0.54146708 -0.25703314 -1.5751234e-21)
(-0.54780564 -0.25697702 -1.4790239e-21)
(-0.5544992 -0.25686098 -1.478356e-21)
(-0.56156574 -0.25668558 -1.4773465e-21)
(-0.56902397 -0.25645145 -1.4759989e-21)
(-0.57689341 -0.25615929 -1.4743174e-21)
(-0.58519442 -0.25580987 -1.4723063e-21)
(-0.59394827 -0.25540401 -1.4699704e-21)
(-0.6031772 -0.25494259 -1.4673147e-21)
(-0.61290448 -0.25442653 -1.4643446e-21)
(-0.62315449 -0.2538568 -1.4610655e-21)
(-0.63395285 -0.25323441 -1.4574833e-21)
(-0.64532643 -0.25256039 1.5144544e-21)
(-0.65730354 -0.2518358 -1.4494337e-21)
(-0.66991397 -0.25106171 -1.4449785e-21)
(-0.68318916 -0.25023923 2.4918309e-21)
(-0.69716231 -0.24936943 -1.4652793e-21)
(-0.71186856 -0.2484534 -5.5271055e-21)
(-0.72734511 -0.24749222 -1.4244344e-21)
(-0.74363144 -0.24648695 2.8613008e-21)
(-0.76076945 -0.24543859 -1.4421732e-21)
(-0.77880379 -0.24434814 -4.4823828e-21)
(-0.79778195 -0.24321653 -1.3998258e-21)
(-0.81775461 -0.24204464 -0)
(-0.83877599 -0.24083327 -0)
(-0.86090394 -0.23958316 -6.3173247e-22)
(-0.8842007 -0.23829465 -6.5703906e-22)
(-0.9087328 -0.23696909 -2.4483936e-21)
(-0.93457199 -0.23560574 -6.4971061e-22)
(-0.96179545 -0.23420585 3.4002731e-21)
(-0.99048645 -0.23276852 7.2615747e-22)
(-1.020735 -0.23129461 -5.6249211e-25)
(-1.0526383 -0.22978346 6.9984554e-21)
(-1.0863023 -0.22823447 -4.5386018e-21)
(-1.1218422 -0.2266463 -3.3649562e-21)
(-1.1593836 -0.22501814 2.0013588e-21)
(-1.1990642 -0.22334995 -1.4735943e-20)
(-1.2410352 -0.22163799 -6.1517814e-22)
(-1.285463 -0.21988134 9.218364e-21)
(-1.3325316 -0.2180767 4.3027741e-21)
(-1.3824455 -0.21622141 1.3236386e-21)
(-1.4354312 -0.21431225 -1.5777812e-21)
(-1.4917409 -0.21234346 3.5689718e-22)
(-1.551655 -0.21031273 -6.2968309e-22)
(-1.6154845 -0.20821264 8.7387968e-21)
(-1.6835735 -0.20603695 3.3876966e-23)
(-1.7562999 -0.2037804 -4.2361711e-21)
(-1.8340754 -0.20143411 -4.2181082e-22)
(-1.9173439 -0.19898942 -5.0542821e-21)
(-2.0065775 -0.19643727 -1.0639186e-20)
(-2.1022708 -0.19376467 2.9223072e-21)
(-2.204934 -0.19096085 2.5861918e-20)
(-2.315085 -0.18801027 -7.6698322e-22)
(-2.4332449 -0.18490068 -1.4917036e-20)
(-2.5599465 -0.18161741 4.233729e-21)
(-2.6957838 -0.17813956 9.864659e-22)
(-2.8404336 -0.174229 -4.0366022e-21)
(-2.9723767 -0.16811892 -1.2471985e-21)
(2.972377 -0.16811863 -7.2901222e-21)
(2.8404336 -0.17422742 -9.1391853e-21)
(2.6957839 -0.1781385 4.3880094e-21)
(2.5599467 -0.18161845 2.3219272e-21)
(2.4332452 -0.18490419 -2.7350645e-21)
(2.3150853 -0.18801466 -1.7845934e-21)
(2.2049343 -0.19096629 1.1992693e-21)
(2.1022711 -0.19377192 -1.1864629e-20)
(2.0065778 -0.19644427 5.6836205e-24)
(1.9173443 -0.19899636 1.0733756e-20)
(1.8340757 -0.2014394 6.6198927e-21)
(1.7563001 -0.20378478 -1.6699838e-23)
(1.6835736 -0.20604026 -3.7007843e-21)
(1.6154846 -0.20821422 -7.592604e-23)
(1.5516551 -0.21031428 6.5727974e-22)
(1.4917411 -0.21234517 8.0121407e-21)
(1.4354313 -0.21431252 -3.3641022e-21)
(1.3824455 -0.21622232 -1.7148263e-20)
(1.3325317 -0.21807736 1.1629816e-20)
(1.2854631 -0.21988134 7.2248227e-21)
(1.2410352 -0.22163799 -6.1697739e-21)
(1.1990642 -0.22334995 4.8764332e-21)
(1.1593836 -0.22501814 8.7902445e-21)
(1.1218422 -0.2266463 -3.5789136e-21)
(1.0863023 -0.22823447 -1.2073787e-20)
(1.0526383 -0.22978346 -8.930747e-21)
(1.020735 -0.23129461 3.0603792e-21)
(0.99048645 -0.23276852 8.6686154e-21)
(0.96179545 -0.23420585 1.4043754e-21)
(0.93457199 -0.23560574 7.0639003e-22)
(0.9087328 -0.23696909 3.8376785e-21)
(0.8842007 -0.23829465 -1.250834e-21)
(0.86090394 -0.23958316 -7.0809012e-21)
(0.83877599 -0.24083327 2.5147913e-21)
(0.81775461 -0.24204464 -0)
(0.79778195 -0.24321653 -1.3998258e-21)
(0.77880379 -0.24434814 -0)
(0.76076945 -0.24543859 -1.4126147e-21)
(0.74363144 -0.24648695 -1.4186485e-21)
(0.72734511 -0.24749222 -5.6106483e-21)
(0.71186856 -0.2484534 -1.4598968e-21)
(0.69716231 -0.24936943 2.5772591e-21)
(0.68318916 -0.25023923 -1.4402447e-21)
(0.66991397 -0.25106171 -5.300649e-21)
(0.65730354 -0.2518358 -1.4797716e-21)
(0.64532643 -0.25256039 5.2286121e-21)
(0.63395285 -0.25323441 -1.4574833e-21)
(0.62315449 -0.2538568 -1.4610655e-21)
(0.61290448 -0.25442653 -1.4643446e-21)
(0.6031772 -0.25494259 -1.4673147e-21)
(0.59394827 -0.25540401 -1.4699704e-21)
(0.58519442 -0.25580987 -1.4723063e-21)
(0.57689341 -0.25615929 -1.4743174e-21)
(0.56902397 -0.25645145 -1.4759989e-21)
(0.56156574 -0.25668558 -1.4773465e-21)
(0.5544992 -0.25686098 -1.478356e-21)
(0.54780564 -0.25697702 -1.4790239e-21)
(0.54146708 -0.25703314 1.5412748e-21)
(0.53546625 -0.25702883 -1.479322e-21)
(0.52978653 -0.2569637 -1.4789472e-21)
(0.52441192 -0.2568374 -4.496458e-21)
(0.51932705 -0.2566497 -1.5080578e-21)
(0.51451707 -0.25640042 1.4855829e-21)
(-0 0 0)
(-0.25640042 -0.51451707 1.506593e-21)
(-0.51507728 -0.51507728 -1.1002541e-34)
(-0.51976403 -0.51550905 -2.9914869e-21)
(-0.52472592 -0.51581243 6.6878551e-35)
(-0.52997795 -0.51598761 3.0502729e-21)
(-0.53553569 -0.51603496 6.2935492e-21)
(-0.54141528 -0.51595501 -3.1161001e-21)
(-0.54763349 -0.51574846 -6.435721e-21)
(-0.55420776 -0.51541612 -7.1893528e-35)
(-0.5611562 -0.51495899 1.8201432e-34)
(-0.56849767 -0.51437816 1.0003553e-34)
(-0.57625183 -0.51367488 8.8476269e-35)
(-0.58443914 -0.5128505 -9.5675052e-36)
(-0.59308099 -0.51190646 -9.9392804e-36)
(-0.60219972 -0.51084432 -2.026977e-35)
(-0.61181869 -0.50966569 1.9837746e-34)
(-0.62196237 -0.50837229 5.2822625e-35)
(-0.63265644 -0.50696584 7.4349002e-21)
(-0.64392782 -0.50544815 -1.0487297e-34)
(-0.65580487 -0.50382101 -7.7069377e-21)
(-0.6683174 -0.50208625 9.9567506e-35)
(-0.68149687 -0.50024568 3.9223356e-21)
(-0.69537649 -0.49830108 -2.5779177e-34)
(-0.70999136 -0.49625417 -4.0863348e-21)
(-0.72537866 -0.49410663 2.9957943e-35)
(-0.7415778 -0.49186003 4.2681297e-21)
(-0.75863065 -0.48951584 4.3662769e-21)
(-0.77658174 -0.48707539 -4.4695938e-21)
(-0.79547845 -0.48453985 1.5455956e-34)
(-0.81537135 -0.48191022 4.6928464e-21)
(-0.8363145 -0.47918724 -4.8133365e-21)
(-0.85836564 -0.47637146 1.8032536e-21)
(-0.88158669 -0.47346308 8.1253603e-21)
(-0.90604409 -0.47046207 2.6115166e-21)
(-0.93180932 -0.46736795 -4.5229185e-21)
(-0.95895916 -0.46417986 -2.4463768e-25)
(-0.98757666 -0.4608965 4.5395772e-21)
(-1.0177514 -0.45751605 5.6837134e-21)
(-1.0495804 -0.4540361 1.5317526e-21)
(-1.0831692 -0.45045358 -6.0555351e-21)
(-1.1186324 -0.44676472 1.6070313e-21)
(-1.1560953 -0.44296483 -7.970224e-21)
(-1.1956949 -0.43904836 -5.5583963e-21)
(-1.2375815 -0.43500867 3.5181886e-21)
(-1.2819213 -0.43083785 2.3302191e-21)
(-1.3288972 -0.42652669 1.1905681e-20)
(-1.3787125 -0.4220644 -9.2347947e-21)
(-1.4315927 -0.41743853 -3.1341943e-21)
(-1.4877884 -0.41263446 4.0905346e-21)
(-1.5475783 -0.4076357 -1.1281395e-22)
(-1.6112716 -0.40242323 7.1886043e-21)
(-1.6792101 -0.39697546 2.5356308e-21)
(-1.751769 -0.39126799 1.197828e-21)
(-1.8293581 -0.38527317 -6.5256474e-21)
(-1.9124191 -0.37896007 4.5067957e-21)
(-2.0014235 -0.37229388 1.1653702e-20)
(-2.0968679 -0.36523524 -5.0102921e-21)
(-2.1992688 -0.35773983 -1.2880938e-20)
(-2.3091589 -0.34975631 -2.2369397e-21)
(-2.4270899 -0.34122486 -2.3095731e-21)
(-2.553653 -0.33207411 1.7782249e-20)
(-2.6895506 -0.32221757 -5.3687314e-21)
(-2.8355067 -0.3112849 -3.6234689e-20)
(-2.9735978 -0.30098985 -1.1607832e-20)
(2.9735976 -0.30098978 -1.3786237e-20)
(2.835507 -0.31128494 -1.8463057e-20)
(2.6895509 -0.32221757 -1.6036227e-20)
(2.5536531 -0.33207407 -7.1009859e-21)
(2.4270902 -0.34122506 1.6105977e-20)
(2.3091594 -0.34975632 6.7328853e-21)
(2.1992694 -0.35773985 5.7845688e-21)
(2.0968684 -0.36523523 -1.6689222e-21)
(2.001424 -0.37229384 -8.0106533e-21)
(1.9124195 -0.37896007 -4.9772312e-21)
(1.8293584 -0.38527315 1.094435e-22)
(1.7517692 -0.39126795 -4.0025256e-21)
(1.6792102 -0.39697545 3.4281383e-23)
(1.6112718 -0.40242319 9.4815152e-21)
(1.5475785 -0.40763569 8.816226e-21)
(1.4877885 -0.41263447 1.2158554e-21)
(1.4315927 -0.41743849 -5.5524747e-21)
(1.3787126 -0.42206442 1.2659302e-21)
(1.3288973 -0.42652668 -3.4142643e-21)
(1.2819213 -0.43083785 4.1835276e-21)
(1.2375815 -0.43500867 -7.514549e-21)
(1.1956948 -0.43904836 7.4483584e-22)
(1.1560953 -0.44296483 7.5866334e-21)
(1.1186324 -0.44676472 3.9107393e-21)
(1.0831692 -0.45045358 3.3989215e-21)
(1.0495804 -0.4540361 1.6136668e-21)
(1.0177514 -0.45751605 -7.1656524e-21)
(0.98757666 -0.4608965 -4.5395715e-21)
(0.95895916 -0.46417986 -5.5463447e-21)
(0.93180932 -0.46736795 8.1563054e-21)
(0.90604409 -0.47046207 1.4191322e-21)
(0.88158669 -0.47346308 5.4822674e-21)
(0.85836564 -0.47637146 -1.4282897e-21)
(0.8363145 -0.47918724 -4.8133365e-21)
(0.81537135 -0.48191022 4.6928464e-21)
(0.79547845 -0.48453985 1.2413475e-34)
(0.77658174 -0.48707539 4.6313503e-35)
(0.75863065 -0.48951584 4.3662682e-21)
(0.7415778 -0.49186003 9.4311675e-35)
(0.72537866 -0.49410663 -4.174896e-21)
(0.70999136 -0.49625417 1.7328351e-34)
(0.69537649 -0.49830108 4.0022194e-21)
(0.68149687 -0.50024568 1.8964819e-34)
(0.6683174 -0.50208625 -3.8464816e-21)
(0.65580487 -0.50382101 -7.7069377e-21)
(0.64392782 -0.50544815 3.7061081e-21)
(0.63265644 -0.50696584 7.4349002e-21)
(0.62196237 -0.50837229 5.7614049e-35)
(0.61181869 -0.50966569 -1.0587919e-34)
(0.60219972 -0.51084432 2.7004361e-34)
(0.59308099 -0.51190646 2.1631163e-35)
(0.58443914 -0.5128505 -1.3507066e-35)
(0.57625183 -0.51367488 -1.9769088e-35)
(0.56849767 -0.51437816 -8.5617881e-35)
(0.5611562 -0.51495899 7.8135689e-35)
(0.55420776 -0.51541612 -6.9225115e-35)
(0.54763349 -0.51574846 -6.435721e-21)
(0.54141528 -0.51595501 1.3295014e-34)
(0.53553569 -0.51603496 6.2935492e-21)
(0.52997795 -0.51598761 -7.1205237e-35)
(0.52472592 -0.51581243 -3.0200449e-21)
(0.51976403 -0.51550905 -1.394782e-34)
(0.51507728 -0.51507728 3.0265622e-21)
(0.25640042 -0.51451707 -1.1854477e-35)
(-0.2566497 -0.51932705 4.4661118e-21)
(-0.51550905 -0.51976403 2.9914869e-21)
(-0.5200622 -0.5200622 -1.880791e-36)
(-0.52489048 -0.52022135 2.994119e-21)
(-0.53000906 -0.52024142 6.0446864e-21)
(-0.53543366 -0.52012254 2.9935503e-21)
(-0.54118058 -0.51986497 -6.2320702e-21)
(-0.54726675 -0.51946913 2.9897896e-21)
(-0.55370973 -0.51893556 2.9867187e-21)
(-0.56052778 -0.51826494 2.982859e-21)
(-0.56773986 -0.51745808 2.9782151e-21)
(-0.57536574 -0.51651586 2.9727922e-21)
(-0.583426 -0.5154393 2.966596e-21)
(-0.59194209 -0.51422945 2.9596328e-21)
(-0.60093643 -0.51288747 2.9519091e-21)
(-0.61043245 -0.51141453 2.9434316e-21)
(-0.62045464 -0.50981186 2.9342075e-21)
(-0.63102871 -0.5080807 2.9242438e-21)
(-0.6421816 -0.50622226 -3.0355137e-21)
(-0.65394165 -0.50423776 2.9021259e-21)
(-0.66633864 -0.50212833 2.8899852e-21)
(-0.67940398 -0.49989508 6.7874218e-21)
(-0.6931708 -0.49753898 2.8635713e-21)
(-0.70767412 -0.4950609 -1.2236893e-21)
(-0.72295097 -0.49246155 2.8343483e-21)
(-0.73904065 -0.48974146 7.0722201e-21)
(-0.75598482 -0.48690097 2.8023532e-21)
(-0.77382781 -0.48394014 -4.4537437e-21)
(-0.79261678 -0.48085877 2.7675688e-21)
(-0.81240201 -0.47765632 -0)
(-0.83323724 -0.47433191 7.2938172e-21)
(-0.85517987 -0.47088419 7.8381071e-21)
(-0.87829142 -0.46731144 -8.8776246e-21)
(-0.90263793 -0.46361131 -5.5241778e-21)
(-0.92829022 -0.45978092 -2.869902e-21)
(-0.95532472 -0.45581673 2.7332506e-21)
(-0.98382367 -0.45171444 2.9525945e-21)
(-1.0138761 -0.44746893 -1.3410546e-21)
(-1.0455781 -0.4430742 -8.9252803e-21)
(-1.0790343 -0.43852308 -1.2091458e-21)
(-1.1143585 -0.4338074 1.6386693e-22)
(-1.1516746 -0.42891748 1.2860095e-21)
(-1.1911185 -0.42384221 2.4393274e-21)
(-1.2328394 -0.41856886 -5.9198226e-21)
(-1.2770014 -0.4130826 2.4691003e-21)
(-1.3237862 -0.40736647 3.648667e-21)
(-1.3733951 -0.40140114 6.0603806e-21)
(-1.4260518 -0.39516426 6.5349739e-21)
(-1.482005 -0.38863045 -1.8149243e-21)
(-1.5415321 -0.38177077 8.0440246e-21)
(-1.6049407 -0.37455232 7.7809279e-22)
(-1.6725718 -0.36693773 -3.8630842e-21)
(-1.7448019 -0.35888479 -6.4870374e-22)
(-1.8220427 -0.35034587 -9.5736831e-21)
(-1.904742 -0.34126718 6.8926018e-23)
(-1.9933818 -0.33158812 -3.0552163e-21)
(-2.0884766 -0.32124015 -2.0111217e-21)
(-2.1905722 -0.31014511 6.343906e-21)
(-2.3002475 -0.29821285 -1.4427981e-20)
(-2.4181219 -0.28533781 1.4318765e-20)
(-2.5448743 -0.27139309 1.4703e-20)
(-2.6812815 -0.25622468 -1.7760215e-20)
(-2.8280303 -0.23920469 -1.7682929e-20)
(-2.9670581 -0.22221994 -1.097127e-20)
(2.9670581 -0.22221996 -1.1623876e-20)
(2.8280303 -0.23920462 -2.4861534e-20)
(2.6812817 -0.25622469 -4.9501812e-21)
(2.5448744 -0.27139311 -7.4976754e-21)
(2.4181221 -0.28533781 1.0119118e-21)
(2.300248 -0.29821292 6.800193e-21)
(2.1905725 -0.31014506 1.2652346e-20)
(2.0884768 -0.32124009 1.006202e-21)
(1.9933821 -0.33158815 -1.8378675e-20)
(1.9047423 -0.34126714 -1.479351e-21)
(1.8220429 -0.35034584 3.7234927e-21)
(1.7448021 -0.3588848 2.4941286e-21)
(1.672572 -0.36693769 -3.226275e-21)
(1.6049407 -0.37455228 -0)
(1.5415322 -0.38177076 -4.5750855e-21)
(1.4820052 -0.38863044 1.0842834e-21)
(1.4260518 -0.39516425 -5.1112318e-21)
(1.3733951 -0.40140112 6.4253534e-21)
(1.3237862 -0.40736649 3.6126141e-21)
(1.2770014 -0.4130826 -3.4015896e-21)
(1.2328394 -0.41856887 2.5042637e-21)
(1.1911185 -0.4238422 -3.605623e-21)
(1.1516746 -0.42891748 3.3443156e-21)
(1.1143585 -0.4338074 -2.6833707e-22)
(1.0790343 -0.43852308 -5.2592833e-21)
(1.0455781 -0.4430742 2.5276292e-22)
(1.0138761 -0.44746893 1.6967617e-21)
(0.98382367 -0.45171444 5.425103e-21)
(0.95532472 -0.45581673 1.4970775e-21)
(0.92829022 -0.45978092 -2.5829357e-23)
(0.90263793 -0.46361131 9.4909195e-22)
(0.87829142 -0.46731144 -2.4216109e-21)
(0.85517987 -0.47088419 1.5043868e-21)
(0.83323724 -0.47433191 -0)
(0.81240201 -0.47765632 -0)
(0.79261678 -0.48085877 2.7675688e-21)
(0.77382781 -0.48394014 -0)
(0.75598482 -0.48690097 2.8023445e-21)
(0.73904065 -0.48974146 2.8186929e-21)
(0.72295097 -0.49246155 -1.3265753e-21)
(0.70767412 -0.4950609 2.8493088e-21)
(0.6931708 -0.49753898 6.8530959e-21)
(0.67940398 -0.49989508 2.8771318e-21)
(0.66633864 -0.50212833 -9.4510769e-22)
(0.65394165 -0.50423776 2.9021259e-21)
(0.6421816 -0.50622226 6.6054402e-22)
(0.63102871 -0.5080807 2.9242438e-21)
(0.62045464 -0.50981186 2.9342075e-21)
(0.61043245 -0.51141453 2.9434316e-21)
(0.60093643 -0.51288747 2.9519091e-21)
(0.59194209 -0.51422945 2.9596328e-21)
(0.583426 -0.5154393 2.966596e-21)
(0.57536574 -0.51651586 2.9727922e-21)
(0.56773986 -0.51745808 2.9782151e-21)
(0.56052778 -0.51826494 2.982859e-21)
(0.55370973 -0.51893556 2.9867187e-21)
(0.54726675 -0.51946913 2.9897896e-21)
(0.54118058 -0.51986497 -3.1173209e-21)
(0.53543366 -0.52012254 2.9935503e-21)
(0.53000906 -0.52024142 2.9942345e-21)
(0.52489048 -0.52022135 -2.6873062e-23)
(0.5200622 -0.5200622 2.993203e-21)
(0.51550905 -0.51976403 5.9584844e-21)
(0.2566497 -0.51932705 3.0515336e-21)
(-0.2568374 -0.52441192 1.4782203e-21)
(-0.51581243 -0.52472592 -4.1804492e-35)
(-0.52022135 -0.52489048 -2.994119e-21)
(-0.52490514 -0.52490514 -0)
(-0.52987915 -0.52476962 3.0497042e-21)
(-0.53515924 -0.52448379 -4.8064614e-35)
(-0.54076186 -0.52404765 -3.1123393e-21)
(-0.54670408 -0.52346135 -0)
(-0.55300357 -0.52272517 -0)
(-0.55967872 -0.5218395 -0)
(-0.5667486 -0.52080483 -0)
(-0.57423305 -0.51962176 -0)
(-0.58215273 -0.51829092 -0)
(-0.59052916 -0.51681303 -0)
(-0.5993848 -0.51518884 -0)
(-0.60874309 -0.51341912 -0)
(-0.61862854 -0.51150462 -0)
(-0.62906683 -0.50944609 -0)
(-0.64008488 -0.50724421 -0)
(-0.65171094 -0.5048996 -0)
(-0.66397472 -0.50241276 -0)
(-0.67690752 -0.49978409 3.8959217e-21)
(-0.69054231 -0.49701379 -2.2039668e-34)
(-0.70491393 -0.49410188 -4.0571118e-21)
(-0.72005922 -0.49104817 -0)
(-0.73601723 -0.48785216 4.236126e-21)
(-0.75282933 -0.48451307 8.6657617e-27)
(-0.77053954 -0.48102975 -5.8770437e-21)
(-0.78919464 -0.47740064 -0)
(-0.8088445 -0.47362374 -0)
(-0.82954238 -0.46969652 -0)
(-0.85134518 -0.46561587 -8.9756654e-21)
(-0.87431383 -0.46137807 -2.7666526e-21)
(-0.89851362 -0.45697862 2.5201783e-21)
(-0.92401479 -0.45241223 1.3562956e-21)
(-0.9508928 -0.44767276 -2.2868856e-22)
(-0.97922907 -0.44275296 -2.9357411e-21)
(-1.0091115 -0.43764453 -8.0559337e-22)
(-1.0406351 -0.43233786 4.4152339e-21)
(-1.0739033 -0.42682193 3.0630468e-21)
(-1.1090282 -0.42108412 5.279478e-21)
(-1.1461323 -0.41510995 2.7898144e-22)
(-1.1853496 -0.40888293 -9.4538623e-21)
(-1.2268272 -0.40238427 -2.315889e-21)
(-1.2707272 -0.39559244 2.3722994e-21)
(-1.3172288 -0.38848301 1.1464337e-20)
(-1.3665305 -0.38102805 1.1450864e-22)
(-1.4188533 -0.37319581 -4.1739399e-21)
(-1.4744433 -0.36495027 -8.3509095e-21)
(-1.5335745 -0.35625024 -5.310614e-21)
(-1.5965523 -0.34704917 9.6012318e-21)
(-1.6637158 -0.33729419 -3.7859762e-21)
(-1.7354403 -0.32692541 -3.0036764e-21)
(-1.812139 -0.31587524 4.5215508e-22)
(-1.8942633 -0.30406721 -1.5546116e-20)
(-1.9823037 -0.29141471 -1.4110582e-21)
(-2.0767905 -0.27781958 1.1207101e-20)
(-2.1782951 -0.26316946 -7.1307439e-21)
(-2.2874366 -0.24733478 8.2878054e-22)
(-2.4048923 -0.23016287 8.5947732e-21)
(-2.5314129 -0.21147086 1.2934681e-21)
(-2.6678318 -0.19103646 7.8083182e-21)
(-2.8149015 -0.1677936 1.3621364e-20)
(-2.9518468 -0.1451416 4.7716769e-21)
(2.9518468 -0.1451416 1.6005668e-20)
(2.8149015 -0.1677936 1.2268159e-20)
(2.6678319 -0.19103644 -2.2607169e-20)
(2.531413 -0.21147084 -6.7165935e-21)
(2.4048924 -0.23016284 1.4162484e-20)
(2.2874368 -0.24733474 -5.1679234e-22)
(2.1782954 -0.2631695 9.5207277e-24)
(2.0767907 -0.27781952 2.143002e-20)
(1.982304 -0.29141471 5.7093015e-21)
(1.8942636 -0.3040672 -1.1393885e-20)
(1.8121392 -0.3158752 -1.5434153e-20)
(1.7354405 -0.32692541 7.2012477e-21)
(1.6637159 -0.33729419 1.03404e-20)
(1.5965524 -0.34704913 -4.3115708e-21)
(1.5335746 -0.35625023 4.5509436e-21)
(1.4744433 -0.36495026 2.1829843e-21)
(1.4188534 -0.37319583 -1.2339389e-20)
(1.3665306 -0.38102803 -6.2447205e-21)
(1.3172288 -0.38848301 8.7023455e-21)
(1.2707272 -0.39559244 -7.2976011e-21)
(1.2268272 -0.40238426 1.0673437e-21)
(1.1853496 -0.40888294 5.4811391e-21)
(1.1461323 -0.41510995 -3.3313534e-21)
(1.1090282 -0.42108412 -3.3234955e-21)
(1.0739033 -0.42682193 3.5809969e-21)
(1.0406351 -0.43233786 4.9414212e-21)
(1.0091115 -0.43764453 -1.6073379e-21)
(0.97922907 -0.44275296 -7.1985531e-21)
(0.9508928 -0.44767276 -5.9758257e-21)
(0.92401479 -0.45241223 4.3494405e-21)
(0.89851362 -0.45697862 9.4515119e-21)
(0.87431383 -0.46137807 2.4106891e-21)
(0.85134518 -0.46561587 -1.6710771e-26)
(0.82954238 -0.46969652 -2.4871074e-21)
(0.8088445 -0.47362374 -0)
(0.78919464 -0.47740064 -0)
(0.77053954 -0.48102975 -1.4422255e-21)
(0.75282933 -0.48451307 -0)
(0.73601723 -0.48785216 -0)
(0.72005922 -0.49104817 -4.1442802e-21)
(0.70491393 -0.49410188 -1.3486025e-35)
(0.69054231 -0.49701379 3.9743964e-21)
(0.67690752 -0.49978409 -0)
(0.66397472 -0.50241276 -3.8214874e-21)
(0.65171094 -0.5048996 -1.4806718e-34)
(0.64008488 -0.50724421 3.6839901e-21)
(0.62906683 -0.50944609 -0)
(0.61862854 -0.51150462 -0)
(0.60874309 -0.51341912 -0)
(0.5993848 -0.51518884 -0)
(0.59052916 -0.51681303 -0)
(0.58215273 -0.51829092 -0)
(0.57423305 -0.51962176 -0)
(0.5667486 -0.52080483 -0)
(0.55967872 -0.5218395 -0)
(0.55300357 -0.52272517 -0)
(0.54670408 -0.52346135 -0)
(0.54076186 -0.52404765 -0)
(0.53515924 -0.52448379 -0)
(0.52987915 -0.52476962 -0)
(0.52490514 -0.52490514 -3.0210765e-21)
(0.52022135 -0.52489048 -1.117385e-34)
(0.51581243 -0.52472592 2.9687436e-21)
(0.2568374 -0.52441192 -0)
(-0.2569637 -0.52978653 -1.5702239e-21)
(-0.51598761 -0.52997795 -3.0502729e-21)
(-0.52024142 -0.53000906 -6.0446864e-21)
(-0.52476962 -0.52987915 -3.0497042e-21)
(-0.5295877 -0.5295877 3.7239661e-35)
(-0.53471168 -0.52913434 -3.0454175e-21)
(-0.54015814 -0.52851883 6.0348338e-23)
(-0.54594427 -0.52774106 -3.0373985e-21)
(-0.55208789 -0.52680106 -3.0319883e-21)
(-0.55860744 -0.52569892 -3.025645e-21)
(-0.56552212 -0.52443487 -3.0183698e-21)
(-0.57285183 -0.52300917 -3.0101642e-21)
(-0.58061728 -0.52142216 -3.0010303e-21)
(-0.58884002 -0.5196742 -2.9909699e-21)
(-0.59754252 -0.51776566 -2.9799854e-21)
(-0.60674822 -0.51569692 -2.9680788e-21)
(-0.61648161 -0.51346828 -2.9552519e-21)
(-0.6267683 -0.51108003 -2.9415064e-21)
(-0.63763511 -0.50853233 3.0493659e-21)
(-0.6491102 -0.50582524 -2.9112626e-21)
(-0.66122313 -0.50295865 -2.894764e-21)
(-0.674005 -0.49993226 1.0018707e-21)
(-0.6874886 -0.49674556 -2.8590048e-21)
(-0.7017085 -0.49339776 -6.8783997e-21)
(-0.71670125 -0.48988775 -2.8195349e-21)
(-0.73250555 -0.48621408 1.4175235e-21)
(-0.74916241 -0.48237488 -5.0224261e-21)
(-0.76671538 -0.47836783 -7.1660424e-21)
(-0.78521077 -0.47419005 2.354217e-21)
(-0.8046979 -0.46983813 -0)
(-0.82522939 -0.46530795 -0)
(-0.84686144 -0.46059468 -1.109733e-22)
(-0.86965421 -0.45569266 7.627862e-21)
(-0.89367215 -0.45059532 2.6793626e-21)
(-0.91898447 -0.44529507 -4.1684748e-21)
(-0.94566564 -0.43978314 -4.1537263e-21)
(-0.97379575 -0.43404953 -3.1638952e-22)
(-1.0034614 -0.42808279 3.0074532e-21)
(-1.0347563 -0.42186988 3.102257e-21)
(-1.0677819 -0.415396 -6.6570011e-21)
(-1.1026486 -0.40864422 9.743124e-23)
(-1.1394766 -0.40159546 -7.6762584e-21)
(-1.1783979 -0.39422799 -5.5898932e-21)
(-1.2195567 -0.38651713 7.2961228e-21)
(-1.2631121 -0.37843498 8.3890213e-21)
(-1.3092403 -0.36994975 -1.7742615e-21)
(-1.3581362 -0.36102537 -2.1004312e-22)
(-1.4100171 -0.35162098 5.9838821e-21)
(-1.4651248 -0.34168999 -1.0662022e-20)
(-1.5237295 -0.33117959 -7.0927429e-21)
(-1.5861322 -0.32003001 1.0193906e-20)
(-1.6526683 -0.30817305 9.5250085e-22)
(-1.7237101 -0.29553173 -7.7169642e-21)
(-1.7996691 -0.28201893 9.6597941e-21)
(-1.8809968 -0.26753566 -3.8579001e-21)
(-1.9681873 -0.25197003 -9.3129685e-21)
(-2.0617787 -0.23519469 -2.3458214e-23)
(-2.1623572 -0.21706411 1.8067944e-20)
(-2.2705652 -0.19741103 7.8769226e-21)
(-2.3871149 -0.17603915 1.3095239e-20)
(-2.5128049 -0.15271657 -9.9232433e-22)
(-2.6485176 -0.12716456 -1.4484179e-20)
(-2.7952698 -0.09765957 -2.4863448e-21)
(-2.9286125 -0.070361228 -9.6706478e-21)
(2.9286125 -0.070361228 -6.7624357e-22)
(2.7952698 -0.097659576 1.4739868e-21)
(2.6485177 -0.12716448 -4.5376726e-23)
(2.5128051 -0.15271665 -1.6164206e-20)
(2.3871149 -0.17603916 1.2068504e-21)
(2.2705654 -0.19741095 1.2978088e-20)
(2.1623573 -0.21706411 -1.4336943e-20)
(2.0617789 -0.23519466 5.8561803e-23)
(1.9681875 -0.25196996 1.2883597e-20)
(1.8809969 -0.26753563 -5.0778821e-22)
(1.7996692 -0.28201889 -1.5277883e-20)
(1.7237102 -0.29553178 -6.2914586e-21)
(1.6526684 -0.30817307 1.4981239e-20)
(1.5861323 -0.32002998 2.8122289e-21)
(1.5237295 -0.3311796 4.5212496e-21)
(1.4651249 -0.34168998 1.0124435e-21)
(1.4100171 -0.35162094 -3.1299159e-21)
(1.3581363 -0.36102539 -2.0782609e-21)
(1.3092403 -0.36994975 -1.7842157e-21)
(1.2631121 -0.37843498 6.4275598e-21)
(1.2195566 -0.38651713 1.7086275e-21)
(1.1783979 -0.39422799 -5.9646355e-21)
(1.1394766 -0.40159546 -2.7431956e-22)
(1.1026486 -0.40864422 -1.589273e-21)
(1.0677819 -0.415396 -5.5912162e-21)
(1.0347563 -0.42186988 -4.0153707e-21)
(1.0034614 -0.42808279 4.2914689e-21)
(0.97379575 -0.43404953 2.8145328e-21)
(0.94566564 -0.43978314 -2.8351685e-21)
(0.91898447 -0.44529507 -5.4543785e-21)
(0.89367215 -0.45059532 2.5725511e-21)
(0.86965421 -0.45569266 1.575788e-21)
(0.84686144 -0.46059468 1.5849914e-21)
(0.82522939 -0.46530795 -0)
(0.8046979 -0.46983813 -0)
(0.78521077 -0.47419005 2.354217e-21)
(0.76671538 -0.47836783 -4.4501213e-27)
(0.74916241 -0.48237488 -5.0224309e-21)
(0.73250555 -0.48621408 -2.7983912e-21)
(0.71670125 -0.48988775 -6.9444883e-21)
(0.7017085 -0.49339776 -2.8397366e-21)
(0.6874886 -0.49674556 1.0978161e-21)
(0.674005 -0.49993226 -2.8773457e-21)
(0.66122313 -0.50295865 -6.7004147e-21)
(0.6491102 -0.50582524 -2.9112626e-21)
(0.63763511 -0.50853233 6.7192564e-21)
(0.6267683 -0.51108003 -2.9415064e-21)
(0.61648161 -0.51346828 -2.9552519e-21)
(0.60674822 -0.51569692 -2.9680788e-21)
(0.59754252 -0.51776566 -2.9799854e-21)
(0.58884002 -0.5196742 -2.9909699e-21)
(0.58061728 -0.52142216 -3.0010303e-21)
(0.57285183 -0.52300917 -3.0101642e-21)
(0.56552212 -0.52443487 -3.0183698e-21)
(0.55860744 -0.52569892 -3.025645e-21)
(0.55208789 -0.52680106 -3.0319883e-21)
(0.54594427 -0.52774106 -3.0373985e-21)
(0.54015814 -0.52851883 3.169213e-21)
(0.53471168 -0.52913434 -3.0454175e-21)
(0.5295877 -0.5295877 -3.0480268e-21)
(0.52476962 -0.52987915 -6.0700007e-21)
(0.52024142 -0.53000906 -3.0504519e-21)
(0.51598761 -0.52997795 -8.0521034e-23)
(0.2569637 -0.52978653 -3.1129929e-21)
(-0.25702883 -0.53546625 1.5102855e-21)
(-0.51603496 -0.53553569 -6.2935492e-21)
(-0.52012254 -0.53543366 -2.9935503e-21)
(-0.52448379 -0.53515924 5.9073473e-35)
(-0.52913434 -0.53471168 3.0454175e-21)
(-0.53409037 -0.53409037 -2.6744847e-34)
(-0.53936859 -0.53329483 -3.1043204e-21)
(-0.5449863 -0.53232473 -6.4046116e-21)
(-0.55096143 -0.53117981 9.9071878e-35)
(-0.55731253 -0.52985995 1.498837e-34)
(-0.56405885 -0.52836507 4.2686777e-35)
(-0.57122034 -0.52669515 1.5088501e-34)
(-0.57881776 -0.52485024 1.381781e-35)
(-0.58687267 -0.52283035 1.3412684e-34)
(-0.59540752 -0.52063552 5.2681398e-35)
(-0.60444571 -0.51826573 3.1455041e-35)
(-0.61401166 -0.51572089 1.8447653e-34)
(-0.62413088 -0.51300084 7.3347089e-21)
(-0.63483009 -0.51010524 -1.6548186e-34)
(-0.64613725 -0.50703362 -7.5933251e-21)
(-0.65808175 -0.5037853 2.3393244e-35)
(-0.67069443 -0.50035933 3.8601625e-21)
(-0.6840078 -0.4967545 -5.8377975e-21)
(-0.69805612 -0.49296924 -4.0176419e-21)
(-0.71287555 -0.48900161 1.1078803e-34)
(-0.72850436 -0.4848492 4.1928859e-21)
(-0.74498308 -0.48050912 -5.6468838e-21)
(-0.7623547 -0.47597792 1.4270696e-21)
(-0.78066493 -0.47125147 4.4930946e-21)
(-0.79996241 -0.46632498 -1.3981376e-21)
(-0.82029896 -0.46119283 -2.9631305e-21)
(-0.8417299 -0.45584853 -1.0983134e-22)
(-0.86431452 -0.45028457 2.0824126e-22)
(-0.8881161 -0.44449237 -5.4348774e-21)
(-0.91320275 -0.43846208 -4.0524384e-21)
(-0.93964747 -0.43218253 1.64352e-21)
(-0.96752909 -0.42564097 3.0204873e-25)
(-0.99693246 -0.41882298 -2.9884439e-21)
(-1.0279493 -0.41171221 -6.2212937e-22)
(-1.0606792 -0.40429017 3.2766627e-21)
(-1.0952302 -0.39653595 -5.3722214e-21)
(-1.1317201 -0.38842593 2.2208633e-21)
(-1.1702777 -0.37993339 9.1992277e-21)
(-1.2110441 -0.37102811 -9.4835803e-23)
(-1.254175 -0.36167598 7.1049959e-21)
(-1.2998422 -0.35183827 -6.6943849e-21)
(-1.3482366 -0.34147107 1.2295379e-21)
(-1.3995703 -0.33052479 3.2013862e-21)
(-1.4540801 -0.31894287 -9.6074747e-21)
(-1.5120306 -0.30666138 9.4738502e-21)
(-1.573717 -0.29360752 9.7875208e-21)
(-1.6394687 -0.27969891 -2.2363313e-20)
(-1.7096524 -0.26484198 -8.1069316e-21)
(-1.7846739 -0.24893056 2.4779037e-20)
(-1.8649801 -0.23184448 -1.285537e-21)
(-1.951061 -0.21344763 -1.0612651e-20)
(-2.043452 -0.19358474 1.7854723e-21)
(-2.1427379 -0.17207993 7.2134014e-21)
(-2.2495592 -0.14873249 -4.3202404e-22)
(-2.3646268 -0.12330943 -1.9581475e-20)
(-2.4887421 -0.095543864 -1.7271142e-21)
(-2.6228009 -0.06512552 2.1967085e-20)
(-2.7683017 -0.029480464 -7.6189656e-21)
(-2.8990929 0.0019379155 -1.3595213e-20)
(2.8990929 0.0019379168 -1.0423389e-20)
(2.7683017 -0.029480454 4.4083776e-21)
(2.6228009 -0.065125498 2.1716839e-20)
(2.488742 -0.095543901 -8.099476e-21)
(2.3646269 -0.12330945 -8.0130303e-21)
(2.2495593 -0.14873244 1.2842286e-20)
(2.142738 -0.17207991 -1.0942614e-21)
(2.0434521 -0.19358476 -7.0626754e-21)
(1.9510612 -0.21344757 4.7850944e-21)
(1.8649802 -0.23184447 6.687889e-22)
(1.7846739 -0.24893051 -4.8903193e-21)
(1.7096524 -0.26484199 -3.8689692e-21)
(1.6394688 -0.27969889 9.2689435e-21)
(1.573717 -0.29360753 -3.9898889e-23)
(1.5120307 -0.30666136 -8.5528937e-21)
(1.4540802 -0.31894288 -8.7887048e-22)
(1.3995704 -0.33052478 -0)
(1.3482366 -0.34147108 -1.173921e-20)
(1.2998422 -0.35183825 4.8666601e-21)
(1.254175 -0.36167598 6.0993594e-21)
(1.2110441 -0.37102811 -2.8306556e-22)
(1.1702777 -0.37993339 1.8319063e-22)
(1.1317201 -0.38842593 3.2972733e-21)
(1.0952302 -0.39653595 3.0175224e-21)
(1.0606792 -0.40429016 1.6147363e-21)
(1.0279493 -0.41171221 -5.2034553e-21)
(0.99693246 -0.41882298 -6.7517338e-21)
(0.96752909 -0.42564097 -2.7981e-21)
(0.93964747 -0.43218253 2.3644896e-21)
(0.91320275 -0.43846208 1.4231352e-21)
(0.8881161 -0.44449237 -5.2184787e-21)
(0.86431452 -0.45028457 -1.0847372e-22)
(0.8417299 -0.45584853 2.5236331e-21)
(0.82029896 -0.46119283 -0)
(0.79996241 -0.46632498 -0)
(0.78066493 -0.47125147 -0)
(0.7623547 -0.47597792 2.9606295e-21)
(0.74498308 -0.48050912 4.2877287e-21)
(0.72850436 -0.4848492 9.2786575e-35)
(0.71287555 -0.48900161 -4.1029347e-21)
(0.69805612 -0.49296924 -5.7933136e-21)
(0.6840078 -0.4967545 3.9367872e-21)
(0.67069443 -0.50035933 3.0071408e-35)
(0.65808175 -0.5037853 -3.7875706e-21)
(0.64613725 -0.50703362 -1.3551921e-20)
(0.63483009 -0.51010524 3.6537463e-21)
(0.62413088 -0.51300084 7.3347089e-21)
(0.61401166 -0.51572089 1.1132904e-34)
(0.60444571 -0.51826573 -7.61637e-35)
(0.59540752 -0.52063552 1.2970948e-34)
(0.58687267 -0.52283035 2.4227807e-34)
(0.57881776 -0.52485024 -2.7626865e-35)
(0.57122034 -0.52669515 1.5308527e-34)
(0.56405885 -0.52836507 4.319043e-35)
(0.55731253 -0.52985995 2.5151289e-34)
(0.55096143 -0.53117981 6.6519015e-35)
(0.5449863 -0.53232473 -6.4046116e-21)
(0.53936859 -0.53329483 3.6949714e-35)
(0.53409037 -0.53409037 6.2765639e-21)