/*--------------------------------*- C++ -*----------------------------------*\
  =========                 |
  \\      /  F ield         | OpenFOAM: The Open Source CFD Toolbox
   \\    /   O peration     | Website:  https://openfoam.org
    \\  /    A nd           | Version:  6
     \\/     M anipulation  |
\*---------------------------------------------------------------------------*/
FoamFile
{
    version     2.0;
    format      ascii;
    class       volScalarField;
    object      T;
}
// * * * * * * * * * * * * * * * * * * * * * * * * * * * * * * * * * * * * * //

dimensions      [0 0 0 1 0 0 0];

internalField   uniform 0;

boundaryField
{
    inlet
    {
        type            RobinPhi;
        phiName         "phi";
        RobinK          0;
        RobinF          1;
        RobinD          0.1;
        value           uniform 1;
    }

    outlet
    {
        type            zeroGradient;
    }

    "solid.*"
    {
        type            Robin;
        RobinD          uniform 0.1;
        RobinK          uniform -1.0;
        RobinF          uniform 0.0;
        value           uniform 0.0;
    }

    "symm.*"
    {
        type            symmetryPlane;
    }

    frontAndBack
    {
        type           symmetry;
    }
}

// ************************************************************************* //
